+ 0.5 1 0 cbr 500 ------- 0 0.0 1.0 0 0
- 0.5 1 0 cbr 500 ------- 0 0.0 1.0 0 0
+ 0.5 1 0 tcp 40 ------- 0 0.1 1.1 0 1
- 0.504 1 0 tcp 40 ------- 0 0.1 1.1 0 1
+ 0.51 1 0 cbr 500 ------- 0 0.0 1.0 1 2
- 0.51 1 0 cbr 500 ------- 0 0.0 1.0 1 2
r 0.514 1 0 cbr 500 ------- 0 0.0 1.0 0 0
+ 0.514 1 0 cbr 500 ------- 0 0.0 1.0 0 0
- 0.514 1 0 cbr 500 ------- 0 0.0 1.0 0 0
r 0.51432 1 0 tcp 40 ------- 0 0.1 1.1 0 1
+ 0.51432 1 0 tcp 40 ------- 0 0.1 1.1 0 1
- 0.518 1 0 tcp 40 ------- 0 0.1 1.1 0 1
+ 0.52 1 0 cbr 500 ------- 0 0.0 1.0 2 3
- 0.52 1 0 cbr 500 ------- 0 0.0 1.0 2 3
r 0.524 1 0 cbr 500 ------- 0 0.0 1.0 1 2
+ 0.524 1 0 cbr 500 ------- 0 0.0 1.0 1 2
- 0.524 1 0 cbr 500 ------- 0 0.0 1.0 1 2
r 0.528 1 0 cbr 500 ------- 0 0.0 1.0 0 0
+ 0.528 1 0 cbr 500 ------- 0 0.0 1.0 0 0
- 0.528 1 0 cbr 500 ------- 0 0.0 1.0 0 0
r 0.52832 1 0 tcp 40 ------- 0 0.1 1.1 0 1
+ 0.52832 1 0 tcp 40 ------- 0 0.1 1.1 0 1
+ 0.53 1 0 cbr 500 ------- 0 0.0 1.0 3 4
- 0.532 1 0 tcp 40 ------- 0 0.1 1.1 0 1
- 0.53232 1 0 cbr 500 ------- 0 0.0 1.0 3 4
r 0.534 1 0 cbr 500 ------- 0 0.0 1.0 2 3
+ 0.534 1 0 cbr 500 ------- 0 0.0 1.0 2 3
- 0.53632 1 0 cbr 500 ------- 0 0.0 1.0 2 3
r 0.538 1 0 cbr 500 ------- 0 0.0 1.0 1 2
+ 0.538 1 0 cbr 500 ------- 0 0.0 1.0 1 2
+ 0.54 1 0 cbr 500 ------- 0 0.0 1.0 4 5
- 0.54032 1 0 cbr 500 ------- 0 0.0 1.0 1 2
r 0.542 1 0 cbr 500 ------- 0 0.0 1.0 0 0
+ 0.542 1 0 cbr 500 ------- 0 0.0 1.0 0 0
r 0.54232 1 0 tcp 40 ------- 0 0.1 1.1 0 1
+ 0.54232 1 0 tcp 40 ------- 0 0.1 1.1 0 1
- 0.54432 1 0 cbr 500 ------- 0 0.0 1.0 4 5
r 0.54632 1 0 cbr 500 ------- 0 0.0 1.0 3 4
+ 0.54632 1 0 cbr 500 ------- 0 0.0 1.0 3 4
- 0.54832 1 0 cbr 500 ------- 0 0.0 1.0 0 0
+ 0.55 1 0 cbr 500 ------- 0 0.0 1.0 5 6
r 0.55032 1 0 cbr 500 ------- 0 0.0 1.0 2 3
+ 0.55032 1 0 cbr 500 ------- 0 0.0 1.0 2 3
- 0.55232 1 0 tcp 40 ------- 0 0.1 1.1 0 1
- 0.55264 1 0 cbr 500 ------- 0 0.0 1.0 3 4
r 0.55432 1 0 cbr 500 ------- 0 0.0 1.0 1 2
+ 0.55432 1 0 cbr 500 ------- 0 0.0 1.0 1 2
- 0.55664 1 0 cbr 500 ------- 0 0.0 1.0 5 6
r 0.55832 1 0 cbr 500 ------- 0 0.0 1.0 4 5
+ 0.55832 1 0 cbr 500 ------- 0 0.0 1.0 4 5
+ 0.56 1 0 cbr 500 ------- 0 0.0 1.0 6 7
- 0.56064 1 0 cbr 500 ------- 0 0.0 1.0 2 3
r 0.56232 1 0 cbr 500 ------- 0 0.0 1.0 0 0
+ 0.56232 1 0 cbr 500 ------- 0 0.0 1.0 0 0
r 0.56264 1 0 tcp 40 ------- 0 0.1 1.1 0 1
+ 0.56264 1 0 tcp 40 ------- 0 0.1 1.1 0 1
- 0.56464 1 0 cbr 500 ------- 0 0.0 1.0 1 2
r 0.56664 1 0 cbr 500 ------- 0 0.0 1.0 3 4
+ 0.56664 1 0 cbr 500 ------- 0 0.0 1.0 3 4
- 0.56864 1 0 cbr 500 ------- 0 0.0 1.0 4 5
+ 0.57 1 0 cbr 500 ------- 0 0.0 1.0 7 8
r 0.57064 1 0 cbr 500 ------- 0 0.0 1.0 5 6
+ 0.57064 1 0 cbr 500 ------- 0 0.0 1.0 5 6
- 0.57264 1 0 cbr 500 ------- 0 0.0 1.0 6 7
r 0.57464 1 0 cbr 500 ------- 0 0.0 1.0 2 3
+ 0.57464 1 0 cbr 500 ------- 0 0.0 1.0 2 3
- 0.57664 1 0 cbr 500 ------- 0 0.0 1.0 0 0
r 0.57864 1 0 cbr 500 ------- 0 0.0 1.0 1 2
+ 0.57864 1 0 cbr 500 ------- 0 0.0 1.0 1 2
+ 0.58 1 0 cbr 500 ------- 0 0.0 1.0 8 9
- 0.58064 1 0 tcp 40 ------- 0 0.1 1.1 0 1
- 0.58096 1 0 cbr 500 ------- 0 0.0 1.0 3 4
r 0.58264 1 0 cbr 500 ------- 0 0.0 1.0 4 5
+ 0.58264 1 0 cbr 500 ------- 0 0.0 1.0 4 5
- 0.58496 1 0 cbr 500 ------- 0 0.0 1.0 7 8
r 0.58664 1 0 cbr 500 ------- 0 0.0 1.0 6 7
+ 0.58664 1 0 cbr 500 ------- 0 0.0 1.0 6 7
- 0.58896 1 0 cbr 500 ------- 0 0.0 1.0 5 6
+ 0.59 1 0 cbr 500 ------- 0 0.0 1.0 9 10
r 0.59064 1 0 cbr 500 ------- 0 0.0 1.0 0 0
+ 0.59064 1 0 cbr 500 ------- 0 0.0 1.0 0 0
r 0.59096 1 0 tcp 40 ------- 0 0.1 1.1 0 1
+ 0.59096 1 0 tcp 40 ------- 0 0.1 1.1 0 1
- 0.59296 1 0 cbr 500 ------- 0 0.0 1.0 2 3
r 0.59496 1 0 cbr 500 ------- 0 0.0 1.0 3 4
+ 0.59496 1 0 cbr 500 ------- 0 0.0 1.0 3 4
- 0.59696 1 0 cbr 500 ------- 0 0.0 1.0 1 2
r 0.59896 1 0 cbr 500 ------- 0 0.0 1.0 7 8
+ 0.59896 1 0 cbr 500 ------- 0 0.0 1.0 7 8
+ 0.6 1 0 cbr 500 ------- 0 0.0 1.0 10 11
- 0.60096 1 0 cbr 500 ------- 0 0.0 1.0 8 9
r 0.60296 1 0 cbr 500 ------- 0 0.0 1.0 5 6
+ 0.60296 1 0 cbr 500 ------- 0 0.0 1.0 5 6
- 0.60496 1 0 cbr 500 ------- 0 0.0 1.0 4 5
r 0.60696 1 0 cbr 500 ------- 0 0.0 1.0 2 3
+ 0.60696 1 0 cbr 500 ------- 0 0.0 1.0 2 3
- 0.60896 1 0 cbr 500 ------- 0 0.0 1.0 6 7
+ 0.61 1 0 cbr 500 ------- 0 0.0 1.0 11 12
r 0.61096 1 0 cbr 500 ------- 0 0.0 1.0 1 2
+ 0.61096 1 0 cbr 500 ------- 0 0.0 1.0 1 2
- 0.61296 1 0 cbr 500 ------- 0 0.0 1.0 9 10
r 0.61496 1 0 cbr 500 ------- 0 0.0 1.0 8 9
+ 0.61496 1 0 cbr 500 ------- 0 0.0 1.0 8 9
- 0.61696 1 0 cbr 500 ------- 0 0.0 1.0 0 0
r 0.61896 1 0 cbr 500 ------- 0 0.0 1.0 4 5
+ 0.61896 1 0 cbr 500 ------- 0 0.0 1.0 4 5
+ 0.62 1 0 cbr 500 ------- 0 0.0 1.0 12 13
- 0.62096 1 0 tcp 40 ------- 0 0.1 1.1 0 1
- 0.62128 1 0 cbr 500 ------- 0 0.0 1.0 3 4
r 0.62296 1 0 cbr 500 ------- 0 0.0 1.0 6 7
+ 0.62296 1 0 cbr 500 ------- 0 0.0 1.0 6 7
- 0.62528 1 0 cbr 500 ------- 0 0.0 1.0 7 8
r 0.62696 1 0 cbr 500 ------- 0 0.0 1.0 9 10
+ 0.62696 1 0 cbr 500 ------- 0 0.0 1.0 9 10
- 0.62928 1 0 cbr 500 ------- 0 0.0 1.0 10 11
+ 0.63 1 0 cbr 500 ------- 0 0.0 1.0 13 14
r 0.63096 1 0 cbr 500 ------- 0 0.0 1.0 0 0
+ 0.63096 1 0 cbr 500 ------- 0 0.0 1.0 0 0
r 0.63128 1 0 tcp 40 ------- 0 0.1 1.1 0 1
+ 0.63128 1 0 tcp 40 ------- 0 0.1 1.1 0 1
- 0.63328 1 0 cbr 500 ------- 0 0.0 1.0 5 6
r 0.63528 1 0 cbr 500 ------- 0 0.0 1.0 3 4
+ 0.63528 1 0 cbr 500 ------- 0 0.0 1.0 3 4
- 0.63728 1 0 cbr 500 ------- 0 0.0 1.0 2 3
r 0.63928 1 0 cbr 500 ------- 0 0.0 1.0 7 8
+ 0.63928 1 0 cbr 500 ------- 0 0.0 1.0 7 8
+ 0.64 1 0 cbr 500 ------- 0 0.0 1.0 14 15
- 0.64128 1 0 cbr 500 ------- 0 0.0 1.0 11 12
r 0.64328 1 0 cbr 500 ------- 0 0.0 1.0 10 11
+ 0.64328 1 0 cbr 500 ------- 0 0.0 1.0 10 11
- 0.64528 1 0 cbr 500 ------- 0 0.0 1.0 1 2
r 0.64728 1 0 cbr 500 ------- 0 0.0 1.0 5 6
+ 0.64728 1 0 cbr 500 ------- 0 0.0 1.0 5 6
- 0.64928 1 0 cbr 500 ------- 0 0.0 1.0 8 9
+ 0.65 1 0 cbr 500 ------- 0 0.0 1.0 15 16
r 0.65128 1 0 cbr 500 ------- 0 0.0 1.0 2 3
+ 0.65128 1 0 cbr 500 ------- 0 0.0 1.0 2 3
- 0.65328 1 0 cbr 500 ------- 0 0.0 1.0 4 5
r 0.65528 1 0 cbr 500 ------- 0 0.0 1.0 11 12
+ 0.65528 1 0 cbr 500 ------- 0 0.0 1.0 11 12
- 0.65728 1 0 cbr 500 ------- 0 0.0 1.0 12 13
r 0.65928 1 0 cbr 500 ------- 0 0.0 1.0 1 2
+ 0.65928 1 0 cbr 500 ------- 0 0.0 1.0 1 2
+ 0.66 1 0 cbr 500 ------- 0 0.0 1.0 16 17
- 0.66128 1 0 cbr 500 ------- 0 0.0 1.0 6 7
r 0.66328 1 0 cbr 500 ------- 0 0.0 1.0 8 9
+ 0.66328 1 0 cbr 500 ------- 0 0.0 1.0 8 9
- 0.66528 1 0 cbr 500 ------- 0 0.0 1.0 9 10
r 0.66728 1 0 cbr 500 ------- 0 0.0 1.0 4 5
+ 0.66728 1 0 cbr 500 ------- 0 0.0 1.0 4 5
- 0.66928 1 0 cbr 500 ------- 0 0.0 1.0 13 14
+ 0.67 1 0 cbr 500 ------- 0 0.0 1.0 17 18
r 0.67128 1 0 cbr 500 ------- 0 0.0 1.0 12 13
+ 0.67128 1 0 cbr 500 ------- 0 0.0 1.0 12 13
- 0.67328 1 0 cbr 500 ------- 0 0.0 1.0 0 0
r 0.67528 1 0 cbr 500 ------- 0 0.0 1.0 6 7
+ 0.67528 1 0 cbr 500 ------- 0 0.0 1.0 6 7
- 0.67728 1 0 tcp 40 ------- 0 0.1 1.1 0 1
- 0.6776 1 0 cbr 500 ------- 0 0.0 1.0 3 4
r 0.67928 1 0 cbr 500 ------- 0 0.0 1.0 9 10
+ 0.67928 1 0 cbr 500 ------- 0 0.0 1.0 9 10
+ 0.68 1 0 cbr 500 ------- 0 0.0 1.0 18 19
- 0.6816 1 0 cbr 500 ------- 0 0.0 1.0 7 8
r 0.68328 1 0 cbr 500 ------- 0 0.0 1.0 13 14
+ 0.68328 1 0 cbr 500 ------- 0 0.0 1.0 13 14
- 0.6856 1 0 cbr 500 ------- 0 0.0 1.0 14 15
r 0.68728 1 0 cbr 500 ------- 0 0.0 1.0 0 0
+ 0.68728 1 0 cbr 500 ------- 0 0.0 1.0 0 0
r 0.6876 1 0 tcp 40 ------- 0 0.1 1.1 0 1
+ 0.6876 1 0 tcp 40 ------- 0 0.1 1.1 0 1
- 0.6896 1 0 cbr 500 ------- 0 0.0 1.0 10 11
+ 0.69 1 0 cbr 500 ------- 0 0.0 1.0 19 20
r 0.6916 1 0 cbr 500 ------- 0 0.0 1.0 3 4
+ 0.6916 1 0 cbr 500 ------- 0 0.0 1.0 3 4
- 0.6936 1 0 cbr 500 ------- 0 0.0 1.0 5 6
r 0.6956 1 0 cbr 500 ------- 0 0.0 1.0 7 8
+ 0.6956 1 0 cbr 500 ------- 0 0.0 1.0 7 8
- 0.6976 1 0 cbr 500 ------- 0 0.0 1.0 15 16
r 0.6996 1 0 cbr 500 ------- 0 0.0 1.0 14 15
+ 0.6996 1 0 cbr 500 ------- 0 0.0 1.0 14 15
+ 0.7 1 0 cbr 500 ------- 0 0.0 1.0 20 21
- 0.7016 1 0 cbr 500 ------- 0 0.0 1.0 2 3
r 0.7036 1 0 cbr 500 ------- 0 0.0 1.0 10 11
+ 0.7036 1 0 cbr 500 ------- 0 0.0 1.0 10 11
- 0.7056 1 0 cbr 500 ------- 0 0.0 1.0 11 12
r 0.7076 1 0 cbr 500 ------- 0 0.0 1.0 5 6
+ 0.7076 1 0 cbr 500 ------- 0 0.0 1.0 5 6
- 0.7096 1 0 cbr 500 ------- 0 0.0 1.0 1 2
+ 0.71 1 0 cbr 500 ------- 0 0.0 1.0 21 22
r 0.7116 1 0 cbr 500 ------- 0 0.0 1.0 15 16
+ 0.7116 1 0 cbr 500 ------- 0 0.0 1.0 15 16
- 0.7136 1 0 cbr 500 ------- 0 0.0 1.0 16 17
r 0.7156 1 0 cbr 500 ------- 0 0.0 1.0 2 3
+ 0.7156 1 0 cbr 500 ------- 0 0.0 1.0 2 3
- 0.7176 1 0 cbr 500 ------- 0 0.0 1.0 8 9
r 0.7196 1 0 cbr 500 ------- 0 0.0 1.0 11 12
+ 0.7196 1 0 cbr 500 ------- 0 0.0 1.0 11 12
+ 0.72 1 0 cbr 500 ------- 0 0.0 1.0 22 23
- 0.7216 1 0 cbr 500 ------- 0 0.0 1.0 4 5
r 0.7236 1 0 cbr 500 ------- 0 0.0 1.0 1 2
+ 0.7236 1 0 cbr 500 ------- 0 0.0 1.0 1 2
- 0.7256 1 0 cbr 500 ------- 0 0.0 1.0 17 18
r 0.7276 1 0 cbr 500 ------- 0 0.0 1.0 16 17
+ 0.7276 1 0 cbr 500 ------- 0 0.0 1.0 16 17
- 0.7296 1 0 cbr 500 ------- 0 0.0 1.0 12 13
+ 0.73 1 0 cbr 500 ------- 0 0.0 1.0 23 24
r 0.7316 1 0 cbr 500 ------- 0 0.0 1.0 8 9
+ 0.7316 1 0 cbr 500 ------- 0 0.0 1.0 8 9
- 0.7336 1 0 cbr 500 ------- 0 0.0 1.0 6 7
r 0.7356 1 0 cbr 500 ------- 0 0.0 1.0 4 5
+ 0.7356 1 0 cbr 500 ------- 0 0.0 1.0 4 5
- 0.7376 1 0 cbr 500 ------- 0 0.0 1.0 9 10
r 0.7396 1 0 cbr 500 ------- 0 0.0 1.0 17 18
+ 0.7396 1 0 cbr 500 ------- 0 0.0 1.0 17 18
+ 0.74 1 0 cbr 500 ------- 0 0.0 1.0 24 25
- 0.7416 1 0 cbr 500 ------- 0 0.0 1.0 18 19
r 0.7436 1 0 cbr 500 ------- 0 0.0 1.0 12 13
d 0.7436 1 0 cbr 500 ------- 0 0.0 1.0 12 13
- 0.7456 1 0 cbr 500 ------- 0 0.0 1.0 13 14
r 0.7476 1 0 cbr 500 ------- 0 0.0 1.0 6 7
+ 0.7476 1 0 cbr 500 ------- 0 0.0 1.0 6 7
- 0.7496 1 0 cbr 500 ------- 0 0.0 1.0 0 0
+ 0.75 1 0 cbr 500 ------- 0 0.0 1.0 25 26
r 0.7516 1 0 cbr 500 ------- 0 0.0 1.0 9 10
+ 0.7516 1 0 cbr 500 ------- 0 0.0 1.0 9 10
- 0.7536 1 0 tcp 40 ------- 0 0.1 1.1 0 1
- 0.75392 1 0 cbr 500 ------- 0 0.0 1.0 19 20
r 0.7556 1 0 cbr 500 ------- 0 0.0 1.0 18 19
+ 0.7556 1 0 cbr 500 ------- 0 0.0 1.0 18 19
- 0.75792 1 0 cbr 500 ------- 0 0.0 1.0 3 4
r 0.7596 1 0 cbr 500 ------- 0 0.0 1.0 13 14
+ 0.7596 1 0 cbr 500 ------- 0 0.0 1.0 13 14
+ 0.76 1 0 cbr 500 ------- 0 0.0 1.0 26 27
- 0.76192 1 0 cbr 500 ------- 0 0.0 1.0 7 8
r 0.7636 1 0 cbr 500 ------- 0 0.0 1.0 0 0
+ 0.7636 1 0 cbr 500 ------- 0 0.0 1.0 0 0
r 0.76392 1 0 tcp 40 ------- 0 0.1 1.1 0 1
d 0.76392 1 0 tcp 40 ------- 0 0.1 1.1 0 1
- 0.76592 1 0 cbr 500 ------- 0 0.0 1.0 14 15
r 0.76792 1 0 cbr 500 ------- 0 0.0 1.0 19 20
+ 0.76792 1 0 cbr 500 ------- 0 0.0 1.0 19 20
- 0.76992 1 0 cbr 500 ------- 0 0.0 1.0 20 21
+ 0.77 1 0 cbr 500 ------- 0 0.0 1.0 27 28
r 0.77192 1 0 cbr 500 ------- 0 0.0 1.0 3 4
+ 0.77192 1 0 cbr 500 ------- 0 0.0 1.0 3 4
- 0.77392 1 0 cbr 500 ------- 0 0.0 1.0 10 11
r 0.77592 1 0 cbr 500 ------- 0 0.0 1.0 7 8
+ 0.77592 1 0 cbr 500 ------- 0 0.0 1.0 7 8
- 0.77792 1 0 cbr 500 ------- 0 0.0 1.0 5 6
r 0.77992 1 0 cbr 500 ------- 0 0.0 1.0 14 15
+ 0.77992 1 0 cbr 500 ------- 0 0.0 1.0 14 15
+ 0.78 1 0 cbr 500 ------- 0 0.0 1.0 28 29
- 0.78192 1 0 cbr 500 ------- 0 0.0 1.0 21 22
r 0.78392 1 0 cbr 500 ------- 0 0.0 1.0 20 21
+ 0.78392 1 0 cbr 500 ------- 0 0.0 1.0 20 21
- 0.78592 1 0 cbr 500 ------- 0 0.0 1.0 15 16
r 0.78792 1 0 cbr 500 ------- 0 0.0 1.0 10 11
+ 0.78792 1 0 cbr 500 ------- 0 0.0 1.0 10 11
- 0.78992 1 0 cbr 500 ------- 0 0.0 1.0 2 3
+ 0.79 1 0 cbr 500 ------- 0 0.0 1.0 29 30
r 0.79192 1 0 cbr 500 ------- 0 0.0 1.0 5 6
+ 0.79192 1 0 cbr 500 ------- 0 0.0 1.0 5 6
- 0.79392 1 0 cbr 500 ------- 0 0.0 1.0 11 12
r 0.79592 1 0 cbr 500 ------- 0 0.0 1.0 21 22
+ 0.79592 1 0 cbr 500 ------- 0 0.0 1.0 21 22
- 0.79792 1 0 cbr 500 ------- 0 0.0 1.0 22 23
r 0.79992 1 0 cbr 500 ------- 0 0.0 1.0 15 16
+ 0.79992 1 0 cbr 500 ------- 0 0.0 1.0 15 16
+ 0.8 1 0 cbr 500 ------- 0 0.0 1.0 30 31
- 0.80192 1 0 cbr 500 ------- 0 0.0 1.0 1 2
r 0.80392 1 0 cbr 500 ------- 0 0.0 1.0 2 3
+ 0.80392 1 0 cbr 500 ------- 0 0.0 1.0 2 3
- 0.80592 1 0 cbr 500 ------- 0 0.0 1.0 16 17
r 0.80792 1 0 cbr 500 ------- 0 0.0 1.0 11 12
+ 0.80792 1 0 cbr 500 ------- 0 0.0 1.0 11 12
- 0.80992 1 0 cbr 500 ------- 0 0.0 1.0 23 24
+ 0.81 1 0 cbr 500 ------- 0 0.0 1.0 31 32
r 0.81192 1 0 cbr 500 ------- 0 0.0 1.0 22 23
+ 0.81192 1 0 cbr 500 ------- 0 0.0 1.0 22 23
- 0.81392 1 0 cbr 500 ------- 0 0.0 1.0 8 9
r 0.81592 1 0 cbr 500 ------- 0 0.0 1.0 1 2
+ 0.81592 1 0 cbr 500 ------- 0 0.0 1.0 1 2
- 0.81792 1 0 cbr 500 ------- 0 0.0 1.0 4 5
r 0.81992 1 0 cbr 500 ------- 0 0.0 1.0 16 17
+ 0.81992 1 0 cbr 500 ------- 0 0.0 1.0 16 17
+ 0.82 1 0 cbr 500 ------- 0 0.0 1.0 32 33
- 0.82192 1 0 cbr 500 ------- 0 0.0 1.0 17 18
r 0.82392 1 0 cbr 500 ------- 0 0.0 1.0 23 24
+ 0.82392 1 0 cbr 500 ------- 0 0.0 1.0 23 24
- 0.82592 1 0 cbr 500 ------- 0 0.0 1.0 24 25
r 0.82792 1 0 cbr 500 ------- 0 0.0 1.0 8 9
+ 0.82792 1 0 cbr 500 ------- 0 0.0 1.0 8 9
- 0.82992 1 0 cbr 500 ------- 0 0.0 1.0 6 7
+ 0.83 1 0 cbr 500 ------- 0 0.0 1.0 33 34
r 0.83192 1 0 cbr 500 ------- 0 0.0 1.0 4 5
+ 0.83192 1 0 cbr 500 ------- 0 0.0 1.0 4 5
- 0.83392 1 0 cbr 500 ------- 0 0.0 1.0 25 26
r 0.83592 1 0 cbr 500 ------- 0 0.0 1.0 17 18
+ 0.83592 1 0 cbr 500 ------- 0 0.0 1.0 17 18
- 0.83792 1 0 cbr 500 ------- 0 0.0 1.0 9 10
r 0.83992 1 0 cbr 500 ------- 0 0.0 1.0 24 25
+ 0.83992 1 0 cbr 500 ------- 0 0.0 1.0 24 25
+ 0.84 1 0 cbr 500 ------- 0 0.0 1.0 34 35
- 0.84192 1 0 cbr 500 ------- 0 0.0 1.0 18 19
r 0.84392 1 0 cbr 500 ------- 0 0.0 1.0 6 7
+ 0.84392 1 0 cbr 500 ------- 0 0.0 1.0 6 7
- 0.84592 1 0 cbr 500 ------- 0 0.0 1.0 13 14
r 0.84792 1 0 cbr 500 ------- 0 0.0 1.0 25 26
+ 0.84792 1 0 cbr 500 ------- 0 0.0 1.0 25 26
- 0.84992 1 0 cbr 500 ------- 0 0.0 1.0 26 27
+ 0.85 1 0 cbr 500 ------- 0 0.0 1.0 35 36
r 0.85192 1 0 cbr 500 ------- 0 0.0 1.0 9 10
+ 0.85192 1 0 cbr 500 ------- 0 0.0 1.0 9 10
- 0.85392 1 0 cbr 500 ------- 0 0.0 1.0 0 0
r 0.85592 1 0 cbr 500 ------- 0 0.0 1.0 18 19
+ 0.85592 1 0 cbr 500 ------- 0 0.0 1.0 18 19
- 0.85792 1 0 cbr 500 ------- 0 0.0 1.0 19 20
r 0.85992 1 0 cbr 500 ------- 0 0.0 1.0 13 14
+ 0.85992 1 0 cbr 500 ------- 0 0.0 1.0 13 14
+ 0.86 1 0 cbr 500 ------- 0 0.0 1.0 36 37
- 0.86192 1 0 cbr 500 ------- 0 0.0 1.0 27 28
r 0.86392 1 0 cbr 500 ------- 0 0.0 1.0 26 27
+ 0.86392 1 0 cbr 500 ------- 0 0.0 1.0 26 27
- 0.86592 1 0 cbr 500 ------- 0 0.0 1.0 3 4
r 0.86792 1 0 cbr 500 ------- 0 0.0 1.0 0 0
+ 0.86792 1 0 cbr 500 ------- 0 0.0 1.0 0 0
- 0.86992 1 0 cbr 500 ------- 0 0.0 1.0 7 8
+ 0.87 1 0 cbr 500 ------- 0 0.0 1.0 37 38
r 0.87192 1 0 cbr 500 ------- 0 0.0 1.0 19 20
+ 0.87192 1 0 cbr 500 ------- 0 0.0 1.0 19 20
- 0.87392 1 0 cbr 500 ------- 0 0.0 1.0 14 15
r 0.87592 1 0 cbr 500 ------- 0 0.0 1.0 27 28
+ 0.87592 1 0 cbr 500 ------- 0 0.0 1.0 27 28
- 0.87792 1 0 cbr 500 ------- 0 0.0 1.0 28 29
r 0.87992 1 0 cbr 500 ------- 0 0.0 1.0 3 4
+ 0.87992 1 0 cbr 500 ------- 0 0.0 1.0 3 4
+ 0.88 1 0 cbr 500 ------- 0 0.0 1.0 38 39
- 0.88192 1 0 cbr 500 ------- 0 0.0 1.0 20 21
r 0.88392 1 0 cbr 500 ------- 0 0.0 1.0 7 8
+ 0.88392 1 0 cbr 500 ------- 0 0.0 1.0 7 8
- 0.88592 1 0 cbr 500 ------- 0 0.0 1.0 10 11
r 0.88792 1 0 cbr 500 ------- 0 0.0 1.0 14 15
+ 0.88792 1 0 cbr 500 ------- 0 0.0 1.0 14 15
- 0.88992 1 0 cbr 500 ------- 0 0.0 1.0 29 30
+ 0.89 1 0 cbr 500 ------- 0 0.0 1.0 39 40
r 0.89192 1 0 cbr 500 ------- 0 0.0 1.0 28 29
+ 0.89192 1 0 cbr 500 ------- 0 0.0 1.0 28 29
- 0.89392 1 0 cbr 500 ------- 0 0.0 1.0 5 6
r 0.89592 1 0 cbr 500 ------- 0 0.0 1.0 20 21
+ 0.89592 1 0 cbr 500 ------- 0 0.0 1.0 20 21
- 0.89792 1 0 cbr 500 ------- 0 0.0 1.0 21 22
r 0.89992 1 0 cbr 500 ------- 0 0.0 1.0 10 11
+ 0.89992 1 0 cbr 500 ------- 0 0.0 1.0 10 11
+ 0.9 1 0 cbr 500 ------- 0 0.0 1.0 40 41
- 0.90192 1 0 cbr 500 ------- 0 0.0 1.0 15 16
r 0.90392 1 0 cbr 500 ------- 0 0.0 1.0 29 30
+ 0.90392 1 0 cbr 500 ------- 0 0.0 1.0 29 30
- 0.90592 1 0 cbr 500 ------- 0 0.0 1.0 30 31
r 0.90792 1 0 cbr 500 ------- 0 0.0 1.0 5 6
+ 0.90792 1 0 cbr 500 ------- 0 0.0 1.0 5 6
- 0.90992 1 0 cbr 500 ------- 0 0.0 1.0 2 3
+ 0.91 1 0 cbr 500 ------- 0 0.0 1.0 41 42
r 0.91192 1 0 cbr 500 ------- 0 0.0 1.0 21 22
+ 0.91192 1 0 cbr 500 ------- 0 0.0 1.0 21 22
- 0.91392 1 0 cbr 500 ------- 0 0.0 1.0 11 12
r 0.91592 1 0 cbr 500 ------- 0 0.0 1.0 15 16
+ 0.91592 1 0 cbr 500 ------- 0 0.0 1.0 15 16
- 0.91792 1 0 cbr 500 ------- 0 0.0 1.0 31 32
r 0.91992 1 0 cbr 500 ------- 0 0.0 1.0 30 31
+ 0.91992 1 0 cbr 500 ------- 0 0.0 1.0 30 31
+ 0.92 1 0 cbr 500 ------- 0 0.0 1.0 42 43
- 0.92192 1 0 cbr 500 ------- 0 0.0 1.0 22 23
r 0.92392 1 0 cbr 500 ------- 0 0.0 1.0 2 3
+ 0.92392 1 0 cbr 500 ------- 0 0.0 1.0 2 3
- 0.92592 1 0 cbr 500 ------- 0 0.0 1.0 1 2
r 0.92792 1 0 cbr 500 ------- 0 0.0 1.0 11 12
+ 0.92792 1 0 cbr 500 ------- 0 0.0 1.0 11 12
- 0.92992 1 0 cbr 500 ------- 0 0.0 1.0 16 17
+ 0.93 1 0 cbr 500 ------- 0 0.0 1.0 43 44
r 0.93192 1 0 cbr 500 ------- 0 0.0 1.0 31 32
+ 0.93192 1 0 cbr 500 ------- 0 0.0 1.0 31 32
- 0.93392 1 0 cbr 500 ------- 0 0.0 1.0 32 33
r 0.93592 1 0 cbr 500 ------- 0 0.0 1.0 22 23
+ 0.93592 1 0 cbr 500 ------- 0 0.0 1.0 22 23
- 0.93792 1 0 cbr 500 ------- 0 0.0 1.0 23 24
r 0.93992 1 0 cbr 500 ------- 0 0.0 1.0 1 2
+ 0.93992 1 0 cbr 500 ------- 0 0.0 1.0 1 2
+ 0.94 1 0 cbr 500 ------- 0 0.0 1.0 44 45
- 0.94192 1 0 cbr 500 ------- 0 0.0 1.0 8 9
r 0.94392 1 0 cbr 500 ------- 0 0.0 1.0 16 17
+ 0.94392 1 0 cbr 500 ------- 0 0.0 1.0 16 17
- 0.94592 1 0 cbr 500 ------- 0 0.0 1.0 33 34
r 0.94792 1 0 cbr 500 ------- 0 0.0 1.0 32 33
+ 0.94792 1 0 cbr 500 ------- 0 0.0 1.0 32 33
- 0.94992 1 0 cbr 500 ------- 0 0.0 1.0 4 5
+ 0.95 1 0 cbr 500 ------- 0 0.0 1.0 45 46
r 0.95192 1 0 cbr 500 ------- 0 0.0 1.0 23 24
+ 0.95192 1 0 cbr 500 ------- 0 0.0 1.0 23 24
- 0.95392 1 0 cbr 500 ------- 0 0.0 1.0 17 18
r 0.95592 1 0 cbr 500 ------- 0 0.0 1.0 8 9
+ 0.95592 1 0 cbr 500 ------- 0 0.0 1.0 8 9
- 0.95792 1 0 cbr 500 ------- 0 0.0 1.0 24 25
r 0.95992 1 0 cbr 500 ------- 0 0.0 1.0 33 34
+ 0.95992 1 0 cbr 500 ------- 0 0.0 1.0 33 34
+ 0.96 1 0 cbr 500 ------- 0 0.0 1.0 46 47
- 0.96192 1 0 cbr 500 ------- 0 0.0 1.0 34 35
r 0.96392 1 0 cbr 500 ------- 0 0.0 1.0 4 5
+ 0.96392 1 0 cbr 500 ------- 0 0.0 1.0 4 5
- 0.96592 1 0 cbr 500 ------- 0 0.0 1.0 6 7
r 0.96792 1 0 cbr 500 ------- 0 0.0 1.0 17 18
+ 0.96792 1 0 cbr 500 ------- 0 0.0 1.0 17 18
- 0.96992 1 0 cbr 500 ------- 0 0.0 1.0 25 26
+ 0.97 1 0 cbr 500 ------- 0 0.0 1.0 47 48
r 0.97192 1 0 cbr 500 ------- 0 0.0 1.0 24 25
+ 0.97192 1 0 cbr 500 ------- 0 0.0 1.0 24 25
- 0.97392 1 0 cbr 500 ------- 0 0.0 1.0 35 36
r 0.97592 1 0 cbr 500 ------- 0 0.0 1.0 34 35
+ 0.97592 1 0 cbr 500 ------- 0 0.0 1.0 34 35
- 0.97792 1 0 cbr 500 ------- 0 0.0 1.0 9 10
r 0.97992 1 0 cbr 500 ------- 0 0.0 1.0 6 7
+ 0.97992 1 0 cbr 500 ------- 0 0.0 1.0 6 7
+ 0.98 1 0 cbr 500 ------- 0 0.0 1.0 48 49
- 0.98192 1 0 cbr 500 ------- 0 0.0 1.0 18 19
r 0.98392 1 0 cbr 500 ------- 0 0.0 1.0 25 26
+ 0.98392 1 0 cbr 500 ------- 0 0.0 1.0 25 26
- 0.98592 1 0 cbr 500 ------- 0 0.0 1.0 13 14
r 0.98792 1 0 cbr 500 ------- 0 0.0 1.0 35 36
+ 0.98792 1 0 cbr 500 ------- 0 0.0 1.0 35 36
- 0.98992 1 0 cbr 500 ------- 0 0.0 1.0 36 37
+ 0.99 1 0 cbr 500 ------- 0 0.0 1.0 49 50
r 0.99192 1 0 cbr 500 ------- 0 0.0 1.0 9 10
+ 0.99192 1 0 cbr 500 ------- 0 0.0 1.0 9 10
- 0.99392 1 0 cbr 500 ------- 0 0.0 1.0 26 27
r 0.99592 1 0 cbr 500 ------- 0 0.0 1.0 18 19
+ 0.99592 1 0 cbr 500 ------- 0 0.0 1.0 18 19
- 0.99792 1 0 cbr 500 ------- 0 0.0 1.0 0 0
r 0.99992 1 0 cbr 500 ------- 0 0.0 1.0 13 14
+ 0.99992 1 0 cbr 500 ------- 0 0.0 1.0 13 14
+ 1 1 0 cbr 500 ------- 0 0.0 1.0 50 51
- 1.00192 1 0 cbr 500 ------- 0 0.0 1.0 37 38
r 1.00392 1 0 cbr 500 ------- 0 0.0 1.0 36 37
+ 1.00392 1 0 cbr 500 ------- 0 0.0 1.0 36 37
- 1.00592 1 0 cbr 500 ------- 0 0.0 1.0 19 20
r 1.00792 1 0 cbr 500 ------- 0 0.0 1.0 26 27
+ 1.00792 1 0 cbr 500 ------- 0 0.0 1.0 26 27
- 1.00992 1 0 cbr 500 ------- 0 0.0 1.0 27 28
+ 1.01 1 0 cbr 500 ------- 0 0.0 1.0 51 52
r 1.01192 1 0 cbr 500 ------- 0 0.0 1.0 0 0
+ 1.01192 1 0 cbr 500 ------- 0 0.0 1.0 0 0
- 1.01392 1 0 cbr 500 ------- 0 0.0 1.0 3 4
r 1.01592 1 0 cbr 500 ------- 0 0.0 1.0 37 38
+ 1.01592 1 0 cbr 500 ------- 0 0.0 1.0 37 38
- 1.01792 1 0 cbr 500 ------- 0 0.0 1.0 38 39
r 1.01992 1 0 cbr 500 ------- 0 0.0 1.0 19 20
+ 1.01992 1 0 cbr 500 ------- 0 0.0 1.0 19 20
+ 1.02 1 0 cbr 500 ------- 0 0.0 1.0 52 53
- 1.02192 1 0 cbr 500 ------- 0 0.0 1.0 7 8
r 1.02392 1 0 cbr 500 ------- 0 0.0 1.0 27 28
+ 1.02392 1 0 cbr 500 ------- 0 0.0 1.0 27 28
- 1.02592 1 0 cbr 500 ------- 0 0.0 1.0 14 15
r 1.02792 1 0 cbr 500 ------- 0 0.0 1.0 3 4
+ 1.02792 1 0 cbr 500 ------- 0 0.0 1.0 3 4
- 1.02992 1 0 cbr 500 ------- 0 0.0 1.0 39 40
+ 1.03 1 0 cbr 500 ------- 0 0.0 1.0 53 54
r 1.03192 1 0 cbr 500 ------- 0 0.0 1.0 38 39
d 1.03192 1 0 cbr 500 ------- 0 0.0 1.0 38 39
- 1.03392 1 0 cbr 500 ------- 0 0.0 1.0 28 29
r 1.03592 1 0 cbr 500 ------- 0 0.0 1.0 7 8
+ 1.03592 1 0 cbr 500 ------- 0 0.0 1.0 7 8
- 1.03792 1 0 cbr 500 ------- 0 0.0 1.0 20 21
r 1.03992 1 0 cbr 500 ------- 0 0.0 1.0 14 15
+ 1.03992 1 0 cbr 500 ------- 0 0.0 1.0 14 15
+ 1.04 1 0 cbr 500 ------- 0 0.0 1.0 54 55
d 1.04 1 0 cbr 500 ------- 0 0.0 1.0 54 55
- 1.04192 1 0 cbr 500 ------- 0 0.0 1.0 10 11
r 1.04392 1 0 cbr 500 ------- 0 0.0 1.0 39 40
+ 1.04392 1 0 cbr 500 ------- 0 0.0 1.0 39 40
- 1.04592 1 0 cbr 500 ------- 0 0.0 1.0 40 41
r 1.04792 1 0 cbr 500 ------- 0 0.0 1.0 28 29
+ 1.04792 1 0 cbr 500 ------- 0 0.0 1.0 28 29
- 1.04992 1 0 cbr 500 ------- 0 0.0 1.0 29 30
+ 1.05 1 0 cbr 500 ------- 0 0.0 1.0 55 56
r 1.05192 1 0 cbr 500 ------- 0 0.0 1.0 20 21
+ 1.05192 1 0 cbr 500 ------- 0 0.0 1.0 20 21
d 1.05192 1 0 cbr 500 ------- 0 0.0 1.0 20 21
- 1.05392 1 0 cbr 500 ------- 0 0.0 1.0 5 6
r 1.05592 1 0 cbr 500 ------- 0 0.0 1.0 10 11
+ 1.05592 1 0 cbr 500 ------- 0 0.0 1.0 10 11
- 1.05792 1 0 cbr 500 ------- 0 0.0 1.0 41 42
r 1.05992 1 0 cbr 500 ------- 0 0.0 1.0 40 41
+ 1.05992 1 0 cbr 500 ------- 0 0.0 1.0 40 41
+ 1.06 1 0 cbr 500 ------- 0 0.0 1.0 56 57
d 1.06 1 0 cbr 500 ------- 0 0.0 1.0 56 57
- 1.06192 1 0 cbr 500 ------- 0 0.0 1.0 21 22
r 1.06392 1 0 cbr 500 ------- 0 0.0 1.0 29 30
+ 1.06392 1 0 cbr 500 ------- 0 0.0 1.0 29 30
- 1.06592 1 0 cbr 500 ------- 0 0.0 1.0 15 16
r 1.06792 1 0 cbr 500 ------- 0 0.0 1.0 5 6
+ 1.06792 1 0 cbr 500 ------- 0 0.0 1.0 5 6
- 1.06992 1 0 cbr 500 ------- 0 0.0 1.0 30 31
d 1.07 1 0 cbr 500 ------- 0 0.0 1.0 57 58
r 1.07192 1 0 cbr 500 ------- 0 0.0 1.0 41 42
+ 1.07192 1 0 cbr 500 ------- 0 0.0 1.0 41 42
- 1.07392 1 0 cbr 500 ------- 0 0.0 1.0 42 43
r 1.07592 1 0 cbr 500 ------- 0 0.0 1.0 21 22
+ 1.07592 1 0 cbr 500 ------- 0 0.0 1.0 21 22
- 1.07792 1 0 cbr 500 ------- 0 0.0 1.0 2 3
r 1.07992 1 0 cbr 500 ------- 0 0.0 1.0 15 16
+ 1.07992 1 0 cbr 500 ------- 0 0.0 1.0 15 16
+ 1.08 1 0 cbr 500 ------- 0 0.0 1.0 58 59
d 1.08 1 0 cbr 500 ------- 0 0.0 1.0 58 59
- 1.08192 1 0 cbr 500 ------- 0 0.0 1.0 11 12
r 1.08392 1 0 cbr 500 ------- 0 0.0 1.0 30 31
+ 1.08392 1 0 cbr 500 ------- 0 0.0 1.0 30 31
- 1.08592 1 0 cbr 500 ------- 0 0.0 1.0 43 44
r 1.08792 1 0 cbr 500 ------- 0 0.0 1.0 42 43
+ 1.08792 1 0 cbr 500 ------- 0 0.0 1.0 42 43
- 1.08992 1 0 cbr 500 ------- 0 0.0 1.0 31 32
+ 1.09 1 0 cbr 500 ------- 0 0.0 1.0 59 60
r 1.09192 1 0 cbr 500 ------- 0 0.0 1.0 2 3
+ 1.09192 1 0 cbr 500 ------- 0 0.0 1.0 2 3
d 1.09192 1 0 cbr 500 ------- 0 0.0 1.0 2 3
- 1.09392 1 0 cbr 500 ------- 0 0.0 1.0 22 23
r 1.09592 1 0 cbr 500 ------- 0 0.0 1.0 11 12
+ 1.09592 1 0 cbr 500 ------- 0 0.0 1.0 11 12
- 1.09792 1 0 cbr 500 ------- 0 0.0 1.0 1 2
r 1.09992 1 0 cbr 500 ------- 0 0.0 1.0 43 44
+ 1.09992 1 0 cbr 500 ------- 0 0.0 1.0 43 44
+ 1.1 1 0 cbr 500 ------- 0 0.0 1.0 60 61
d 1.1 1 0 cbr 500 ------- 0 0.0 1.0 60 61
- 1.10192 1 0 cbr 500 ------- 0 0.0 1.0 44 45
r 1.10392 1 0 cbr 500 ------- 0 0.0 1.0 31 32
+ 1.10392 1 0 cbr 500 ------- 0 0.0 1.0 31 32
- 1.10592 1 0 cbr 500 ------- 0 0.0 1.0 16 17
r 1.10792 1 0 cbr 500 ------- 0 0.0 1.0 22 23
+ 1.10792 1 0 cbr 500 ------- 0 0.0 1.0 22 23
- 1.10992 1 0 cbr 500 ------- 0 0.0 1.0 32 33
+ 1.11 1 0 cbr 500 ------- 0 0.0 1.0 61 62
r 1.11192 1 0 cbr 500 ------- 0 0.0 1.0 1 2
+ 1.11192 1 0 cbr 500 ------- 0 0.0 1.0 1 2
d 1.11192 1 0 cbr 500 ------- 0 0.0 1.0 1 2
- 1.11392 1 0 cbr 500 ------- 0 0.0 1.0 45 46
r 1.11592 1 0 cbr 500 ------- 0 0.0 1.0 44 45
+ 1.11592 1 0 cbr 500 ------- 0 0.0 1.0 44 45
- 1.11792 1 0 cbr 500 ------- 0 0.0 1.0 23 24
r 1.11992 1 0 cbr 500 ------- 0 0.0 1.0 16 17
+ 1.11992 1 0 cbr 500 ------- 0 0.0 1.0 16 17
+ 1.12 1 0 cbr 500 ------- 0 0.0 1.0 62 63
d 1.12 1 0 cbr 500 ------- 0 0.0 1.0 62 63
- 1.12192 1 0 cbr 500 ------- 0 0.0 1.0 8 9
r 1.12392 1 0 cbr 500 ------- 0 0.0 1.0 32 33
+ 1.12392 1 0 cbr 500 ------- 0 0.0 1.0 32 33
- 1.12592 1 0 cbr 500 ------- 0 0.0 1.0 33 34
r 1.12792 1 0 cbr 500 ------- 0 0.0 1.0 45 46
+ 1.12792 1 0 cbr 500 ------- 0 0.0 1.0 45 46
- 1.12992 1 0 cbr 500 ------- 0 0.0 1.0 46 47
+ 1.13 1 0 cbr 500 ------- 0 0.0 1.0 63 64
r 1.13192 1 0 cbr 500 ------- 0 0.0 1.0 23 24
+ 1.13192 1 0 cbr 500 ------- 0 0.0 1.0 23 24
d 1.13192 1 0 cbr 500 ------- 0 0.0 1.0 23 24
- 1.13392 1 0 cbr 500 ------- 0 0.0 1.0 4 5
r 1.13592 1 0 cbr 500 ------- 0 0.0 1.0 8 9
+ 1.13592 1 0 cbr 500 ------- 0 0.0 1.0 8 9
- 1.13792 1 0 cbr 500 ------- 0 0.0 1.0 17 18
r 1.13992 1 0 cbr 500 ------- 0 0.0 1.0 33 34
+ 1.13992 1 0 cbr 500 ------- 0 0.0 1.0 33 34
+ 1.14 1 0 cbr 500 ------- 0 0.0 1.0 64 65
d 1.14 1 0 cbr 500 ------- 0 0.0 1.0 64 65
- 1.14192 1 0 cbr 500 ------- 0 0.0 1.0 47 48
r 1.14392 1 0 cbr 500 ------- 0 0.0 1.0 46 47
+ 1.14392 1 0 cbr 500 ------- 0 0.0 1.0 46 47
- 1.14592 1 0 cbr 500 ------- 0 0.0 1.0 24 25
r 1.14792 1 0 cbr 500 ------- 0 0.0 1.0 4 5
+ 1.14792 1 0 cbr 500 ------- 0 0.0 1.0 4 5
- 1.14992 1 0 cbr 500 ------- 0 0.0 1.0 34 35
+ 1.15 1 0 cbr 500 ------- 0 0.0 1.0 65 66
r 1.15192 1 0 cbr 500 ------- 0 0.0 1.0 17 18
+ 1.15192 1 0 cbr 500 ------- 0 0.0 1.0 17 18
d 1.15192 1 0 cbr 500 ------- 0 0.0 1.0 17 18
- 1.15392 1 0 cbr 500 ------- 0 0.0 1.0 6 7
r 1.15592 1 0 cbr 500 ------- 0 0.0 1.0 47 48
+ 1.15592 1 0 cbr 500 ------- 0 0.0 1.0 47 48
- 1.15792 1 0 cbr 500 ------- 0 0.0 1.0 48 49
r 1.15992 1 0 cbr 500 ------- 0 0.0 1.0 24 25
+ 1.15992 1 0 cbr 500 ------- 0 0.0 1.0 24 25
+ 1.16 1 0 cbr 500 ------- 0 0.0 1.0 66 67
d 1.16 1 0 cbr 500 ------- 0 0.0 1.0 66 67
- 1.16192 1 0 cbr 500 ------- 0 0.0 1.0 25 26
r 1.16392 1 0 cbr 500 ------- 0 0.0 1.0 34 35
+ 1.16392 1 0 cbr 500 ------- 0 0.0 1.0 34 35
- 1.16592 1 0 cbr 500 ------- 0 0.0 1.0 35 36
r 1.16792 1 0 cbr 500 ------- 0 0.0 1.0 6 7
+ 1.16792 1 0 cbr 500 ------- 0 0.0 1.0 6 7
- 1.16992 1 0 cbr 500 ------- 0 0.0 1.0 49 50
+ 1.17 1 0 cbr 500 ------- 0 0.0 1.0 67 68
r 1.17192 1 0 cbr 500 ------- 0 0.0 1.0 48 49
+ 1.17192 1 0 cbr 500 ------- 0 0.0 1.0 48 49
d 1.17192 1 0 cbr 500 ------- 0 0.0 1.0 48 49
- 1.17392 1 0 cbr 500 ------- 0 0.0 1.0 9 10
r 1.17592 1 0 cbr 500 ------- 0 0.0 1.0 25 26
+ 1.17592 1 0 cbr 500 ------- 0 0.0 1.0 25 26
- 1.17792 1 0 cbr 500 ------- 0 0.0 1.0 18 19
r 1.17992 1 0 cbr 500 ------- 0 0.0 1.0 35 36
+ 1.17992 1 0 cbr 500 ------- 0 0.0 1.0 35 36
+ 1.18 1 0 cbr 500 ------- 0 0.0 1.0 68 69
d 1.18 1 0 cbr 500 ------- 0 0.0 1.0 68 69
- 1.18192 1 0 cbr 500 ------- 0 0.0 1.0 13 14
r 1.18392 1 0 cbr 500 ------- 0 0.0 1.0 49 50
+ 1.18392 1 0 cbr 500 ------- 0 0.0 1.0 49 50
- 1.18592 1 0 cbr 500 ------- 0 0.0 1.0 50 51
r 1.18792 1 0 cbr 500 ------- 0 0.0 1.0 9 10
+ 1.18792 1 0 cbr 500 ------- 0 0.0 1.0 9 10
- 1.18992 1 0 cbr 500 ------- 0 0.0 1.0 36 37
+ 1.19 1 0 cbr 500 ------- 0 0.0 1.0 69 70
r 1.19192 1 0 cbr 500 ------- 0 0.0 1.0 18 19
+ 1.19192 1 0 cbr 500 ------- 0 0.0 1.0 18 19
d 1.19192 1 0 cbr 500 ------- 0 0.0 1.0 18 19
- 1.19392 1 0 cbr 500 ------- 0 0.0 1.0 26 27
r 1.19592 1 0 cbr 500 ------- 0 0.0 1.0 13 14
+ 1.19592 1 0 cbr 500 ------- 0 0.0 1.0 13 14
- 1.19792 1 0 cbr 500 ------- 0 0.0 1.0 51 52
r 1.19992 1 0 cbr 500 ------- 0 0.0 1.0 50 51
+ 1.19992 1 0 cbr 500 ------- 0 0.0 1.0 50 51
+ 1.2 1 0 cbr 500 ------- 0 0.0 1.0 70 71
d 1.2 1 0 cbr 500 ------- 0 0.0 1.0 70 71
- 1.20192 1 0 cbr 500 ------- 0 0.0 1.0 0 0
r 1.20392 1 0 cbr 500 ------- 0 0.0 1.0 36 37
+ 1.20392 1 0 cbr 500 ------- 0 0.0 1.0 36 37
- 1.20592 1 0 cbr 500 ------- 0 0.0 1.0 37 38
r 1.20792 1 0 cbr 500 ------- 0 0.0 1.0 26 27
+ 1.20792 1 0 cbr 500 ------- 0 0.0 1.0 26 27
- 1.20992 1 0 cbr 500 ------- 0 0.0 1.0 19 20
+ 1.21 1 0 cbr 500 ------- 0 0.0 1.0 71 72
r 1.21192 1 0 cbr 500 ------- 0 0.0 1.0 51 52
+ 1.21192 1 0 cbr 500 ------- 0 0.0 1.0 51 52
d 1.21192 1 0 cbr 500 ------- 0 0.0 1.0 51 52
- 1.21392 1 0 cbr 500 ------- 0 0.0 1.0 52 53
r 1.21592 1 0 cbr 500 ------- 0 0.0 1.0 0 0
+ 1.21592 1 0 cbr 500 ------- 0 0.0 1.0 0 0
- 1.21792 1 0 cbr 500 ------- 0 0.0 1.0 27 28
r 1.21992 1 0 cbr 500 ------- 0 0.0 1.0 37 38
+ 1.21992 1 0 cbr 500 ------- 0 0.0 1.0 37 38
+ 1.22 1 0 cbr 500 ------- 0 0.0 1.0 72 73
d 1.22 1 0 cbr 500 ------- 0 0.0 1.0 72 73
- 1.22192 1 0 cbr 500 ------- 0 0.0 1.0 3 4
r 1.22392 1 0 cbr 500 ------- 0 0.0 1.0 19 20
+ 1.22392 1 0 cbr 500 ------- 0 0.0 1.0 19 20
- 1.22592 1 0 cbr 500 ------- 0 0.0 1.0 53 54
r 1.22792 1 0 cbr 500 ------- 0 0.0 1.0 52 53
+ 1.22792 1 0 cbr 500 ------- 0 0.0 1.0 52 53
- 1.22992 1 0 cbr 500 ------- 0 0.0 1.0 7 8
+ 1.23 1 0 cbr 500 ------- 0 0.0 1.0 73 74
r 1.23192 1 0 cbr 500 ------- 0 0.0 1.0 27 28
+ 1.23192 1 0 cbr 500 ------- 0 0.0 1.0 27 28
d 1.23192 1 0 cbr 500 ------- 0 0.0 1.0 27 28
- 1.23392 1 0 cbr 500 ------- 0 0.0 1.0 14 15
r 1.23592 1 0 cbr 500 ------- 0 0.0 1.0 3 4
+ 1.23592 1 0 cbr 500 ------- 0 0.0 1.0 3 4