V -t * -v 1.0a5 -a 0
A -t * -n 1 -p 0 -o 0x7fffffff -c 30 -a 1
A -t * -h 1 -m 1073741823 -s 0
n -t * -a 0 -s 0 -S UP -v circle -c black -i black
n -t * -a 1 -s 1 -S UP -v circle -c black -i black
l -t * -s 0 -d 1 -S UP -r 1000000 -D 0.01 -c black
+ -t 0.5 -s 1 -d 0 -p cbr -e 500 -c 0 -i 0 -a 0 -x {0.0 1.0 0 ------- null}
- -t 0.5 -s 1 -d 0 -p cbr -e 500 -c 0 -i 0 -a 0 -x {0.0 1.0 0 ------- null}
h -t 0.5 -s 1 -d 0 -p cbr -e 500 -c 0 -i 0 -a 0 -x {0.0 1.0 -1 ------- null}
+ -t 0.5 -s 1 -d 0 -p tcp -e 40 -c 0 -i 1 -a 0 -x {0.1 1.1 0 ------- null}
- -t 0.504 -s 1 -d 0 -p tcp -e 40 -c 0 -i 1 -a 0 -x {0.1 1.1 0 ------- null}
h -t 0.504 -s 1 -d 0 -p tcp -e 40 -c 0 -i 1 -a 0 -x {0.1 1.1 -1 ------- null}
+ -t 0.51 -s 1 -d 0 -p cbr -e 500 -c 0 -i 2 -a 0 -x {0.0 1.0 1 ------- null}
- -t 0.51 -s 1 -d 0 -p cbr -e 500 -c 0 -i 2 -a 0 -x {0.0 1.0 1 ------- null}
h -t 0.51 -s 1 -d 0 -p cbr -e 500 -c 0 -i 2 -a 0 -x {0.0 1.0 -1 ------- null}
r -t 0.514 -s 1 -d 0 -p cbr -e 500 -c 0 -i 0 -a 0 -x {0.0 1.0 0 ------- null}
+ -t 0.514 -s 1 -d 0 -p cbr -e 500 -c 0 -i 0 -a 0 -x {0.0 1.0 0 ------- null}
- -t 0.514 -s 1 -d 0 -p cbr -e 500 -c 0 -i 0 -a 0 -x {0.0 1.0 0 ------- null}
h -t 0.514 -s 1 -d 0 -p cbr -e 500 -c 0 -i 0 -a 0 -x {0.0 1.0 -1 ------- null}
r -t 0.51432 -s 1 -d 0 -p tcp -e 40 -c 0 -i 1 -a 0 -x {0.1 1.1 0 ------- null}
+ -t 0.51432 -s 1 -d 0 -p tcp -e 40 -c 0 -i 1 -a 0 -x {0.1 1.1 0 ------- null}
- -t 0.518 -s 1 -d 0 -p tcp -e 40 -c 0 -i 1 -a 0 -x {0.1 1.1 0 ------- null}
h -t 0.518 -s 1 -d 0 -p tcp -e 40 -c 0 -i 1 -a 0 -x {0.1 1.1 -1 ------- null}
+ -t 0.52 -s 1 -d 0 -p cbr -e 500 -c 0 -i 3 -a 0 -x {0.0 1.0 2 ------- null}
- -t 0.52 -s 1 -d 0 -p cbr -e 500 -c 0 -i 3 -a 0 -x {0.0 1.0 2 ------- null}
h -t 0.52 -s 1 -d 0 -p cbr -e 500 -c 0 -i 3 -a 0 -x {0.0 1.0 -1 ------- null}
r -t 0.524 -s 1 -d 0 -p cbr -e 500 -c 0 -i 2 -a 0 -x {0.0 1.0 1 ------- null}
+ -t 0.524 -s 1 -d 0 -p cbr -e 500 -c 0 -i 2 -a 0 -x {0.0 1.0 1 ------- null}
- -t 0.524 -s 1 -d 0 -p cbr -e 500 -c 0 -i 2 -a 0 -x {0.0 1.0 1 ------- null}
h -t 0.524 -s 1 -d 0 -p cbr -e 500 -c 0 -i 2 -a 0 -x {0.0 1.0 -1 ------- null}
r -t 0.528 -s 1 -d 0 -p cbr -e 500 -c 0 -i 0 -a 0 -x {0.0 1.0 0 ------- null}
+ -t 0.528 -s 1 -d 0 -p cbr -e 500 -c 0 -i 0 -a 0 -x {0.0 1.0 0 ------- null}
- -t 0.528 -s 1 -d 0 -p cbr -e 500 -c 0 -i 0 -a 0 -x {0.0 1.0 0 ------- null}
h -t 0.528 -s 1 -d 0 -p cbr -e 500 -c 0 -i 0 -a 0 -x {0.0 1.0 -1 ------- null}
r -t 0.52832 -s 1 -d 0 -p tcp -e 40 -c 0 -i 1 -a 0 -x {0.1 1.1 0 ------- null}
+ -t 0.52832 -s 1 -d 0 -p tcp -e 40 -c 0 -i 1 -a 0 -x {0.1 1.1 0 ------- null}
+ -t 0.53 -s 1 -d 0 -p cbr -e 500 -c 0 -i 4 -a 0 -x {0.0 1.0 3 ------- null}
- -t 0.532 -s 1 -d 0 -p tcp -e 40 -c 0 -i 1 -a 0 -x {0.1 1.1 0 ------- null}
h -t 0.532 -s 1 -d 0 -p tcp -e 40 -c 0 -i 1 -a 0 -x {0.1 1.1 -1 ------- null}
- -t 0.53232 -s 1 -d 0 -p cbr -e 500 -c 0 -i 4 -a 0 -x {0.0 1.0 3 ------- null}
h -t 0.53232 -s 1 -d 0 -p cbr -e 500 -c 0 -i 4 -a 0 -x {0.0 1.0 -1 ------- null}
r -t 0.534 -s 1 -d 0 -p cbr -e 500 -c 0 -i 3 -a 0 -x {0.0 1.0 2 ------- null}
+ -t 0.534 -s 1 -d 0 -p cbr -e 500 -c 0 -i 3 -a 0 -x {0.0 1.0 2 ------- null}
- -t 0.53632 -s 1 -d 0 -p cbr -e 500 -c 0 -i 3 -a 0 -x {0.0 1.0 2 ------- null}
h -t 0.53632 -s 1 -d 0 -p cbr -e 500 -c 0 -i 3 -a 0 -x {0.0 1.0 -1 ------- null}
r -t 0.538 -s 1 -d 0 -p cbr -e 500 -c 0 -i 2 -a 0 -x {0.0 1.0 1 ------- null}
+ -t 0.538 -s 1 -d 0 -p cbr -e 500 -c 0 -i 2 -a 0 -x {0.0 1.0 1 ------- null}
+ -t 0.54 -s 1 -d 0 -p cbr -e 500 -c 0 -i 5 -a 0 -x {0.0 1.0 4 ------- null}
- -t 0.54032 -s 1 -d 0 -p cbr -e 500 -c 0 -i 2 -a 0 -x {0.0 1.0 1 ------- null}
h -t 0.54032 -s 1 -d 0 -p cbr -e 500 -c 0 -i 2 -a 0 -x {0.0 1.0 -1 ------- null}
r -t 0.542 -s 1 -d 0 -p cbr -e 500 -c 0 -i 0 -a 0 -x {0.0 1.0 0 ------- null}
+ -t 0.542 -s 1 -d 0 -p cbr -e 500 -c 0 -i 0 -a 0 -x {0.0 1.0 0 ------- null}
r -t 0.54232 -s 1 -d 0 -p tcp -e 40 -c 0 -i 1 -a 0 -x {0.1 1.1 0 ------- null}
+ -t 0.54232 -s 1 -d 0 -p tcp -e 40 -c 0 -i 1 -a 0 -x {0.1 1.1 0 ------- null}
- -t 0.54432 -s 1 -d 0 -p cbr -e 500 -c 0 -i 5 -a 0 -x {0.0 1.0 4 ------- null}
h -t 0.54432 -s 1 -d 0 -p cbr -e 500 -c 0 -i 5 -a 0 -x {0.0 1.0 -1 ------- null}
r -t 0.54632 -s 1 -d 0 -p cbr -e 500 -c 0 -i 4 -a 0 -x {0.0 1.0 3 ------- null}
+ -t 0.54632 -s 1 -d 0 -p cbr -e 500 -c 0 -i 4 -a 0 -x {0.0 1.0 3 ------- null}
- -t 0.54832 -s 1 -d 0 -p cbr -e 500 -c 0 -i 0 -a 0 -x {0.0 1.0 0 ------- null}
h -t 0.54832 -s 1 -d 0 -p cbr -e 500 -c 0 -i 0 -a 0 -x {0.0 1.0 -1 ------- null}
+ -t 0.55 -s 1 -d 0 -p cbr -e 500 -c 0 -i 6 -a 0 -x {0.0 1.0 5 ------- null}
r -t 0.55032 -s 1 -d 0 -p cbr -e 500 -c 0 -i 3 -a 0 -x {0.0 1.0 2 ------- null}
+ -t 0.55032 -s 1 -d 0 -p cbr -e 500 -c 0 -i 3 -a 0 -x {0.0 1.0 2 ------- null}
- -t 0.55232 -s 1 -d 0 -p tcp -e 40 -c 0 -i 1 -a 0 -x {0.1 1.1 0 ------- null}
h -t 0.55232 -s 1 -d 0 -p tcp -e 40 -c 0 -i 1 -a 0 -x {0.1 1.1 -1 ------- null}
- -t 0.55264 -s 1 -d 0 -p cbr -e 500 -c 0 -i 4 -a 0 -x {0.0 1.0 3 ------- null}
h -t 0.55264 -s 1 -d 0 -p cbr -e 500 -c 0 -i 4 -a 0 -x {0.0 1.0 -1 ------- null}
r -t 0.55432 -s 1 -d 0 -p cbr -e 500 -c 0 -i 2 -a 0 -x {0.0 1.0 1 ------- null}
+ -t 0.55432 -s 1 -d 0 -p cbr -e 500 -c 0 -i 2 -a 0 -x {0.0 1.0 1 ------- null}
- -t 0.55664 -s 1 -d 0 -p cbr -e 500 -c 0 -i 6 -a 0 -x {0.0 1.0 5 ------- null}
h -t 0.55664 -s 1 -d 0 -p cbr -e 500 -c 0 -i 6 -a 0 -x {0.0 1.0 -1 ------- null}
r -t 0.55832 -s 1 -d 0 -p cbr -e 500 -c 0 -i 5 -a 0 -x {0.0 1.0 4 ------- null}
+ -t 0.55832 -s 1 -d 0 -p cbr -e 500 -c 0 -i 5 -a 0 -x {0.0 1.0 4 ------- null}
+ -t 0.56 -s 1 -d 0 -p cbr -e 500 -c 0 -i 7 -a 0 -x {0.0 1.0 6 ------- null}
- -t 0.56064 -s 1 -d 0 -p cbr -e 500 -c 0 -i 3 -a 0 -x {0.0 1.0 2 ------- null}
h -t 0.56064 -s 1 -d 0 -p cbr -e 500 -c 0 -i 3 -a 0 -x {0.0 1.0 -1 ------- null}
r -t 0.56232 -s 1 -d 0 -p cbr -e 500 -c 0 -i 0 -a 0 -x {0.0 1.0 0 ------- null}
+ -t 0.56232 -s 1 -d 0 -p cbr -e 500 -c 0 -i 0 -a 0 -x {0.0 1.0 0 ------- null}
r -t 0.56264 -s 1 -d 0 -p tcp -e 40 -c 0 -i 1 -a 0 -x {0.1 1.1 0 ------- null}
+ -t 0.56264 -s 1 -d 0 -p tcp -e 40 -c 0 -i 1 -a 0 -x {0.1 1.1 0 ------- null}
- -t 0.56464 -s 1 -d 0 -p cbr -e 500 -c 0 -i 2 -a 0 -x {0.0 1.0 1 ------- null}
h -t 0.56464 -s 1 -d 0 -p cbr -e 500 -c 0 -i 2 -a 0 -x {0.0 1.0 -1 ------- null}
r -t 0.56664 -s 1 -d 0 -p cbr -e 500 -c 0 -i 4 -a 0 -x {0.0 1.0 3 ------- null}
+ -t 0.56664 -s 1 -d 0 -p cbr -e 500 -c 0 -i 4 -a 0 -x {0.0 1.0 3 ------- null}
- -t 0.56864 -s 1 -d 0 -p cbr -e 500 -c 0 -i 5 -a 0 -x {0.0 1.0 4 ------- null}
h -t 0.56864 -s 1 -d 0 -p cbr -e 500 -c 0 -i 5 -a 0 -x {0.0 1.0 -1 ------- null}
+ -t 0.57 -s 1 -d 0 -p cbr -e 500 -c 0 -i 8 -a 0 -x {0.0 1.0 7 ------- null}
r -t 0.57064 -s 1 -d 0 -p cbr -e 500 -c 0 -i 6 -a 0 -x {0.0 1.0 5 ------- null}
+ -t 0.57064 -s 1 -d 0 -p cbr -e 500 -c 0 -i 6 -a 0 -x {0.0 1.0 5 ------- null}
- -t 0.57264 -s 1 -d 0 -p cbr -e 500 -c 0 -i 7 -a 0 -x {0.0 1.0 6 ------- null}
h -t 0.57264 -s 1 -d 0 -p cbr -e 500 -c 0 -i 7 -a 0 -x {0.0 1.0 -1 ------- null}
r -t 0.57464 -s 1 -d 0 -p cbr -e 500 -c 0 -i 3 -a 0 -x {0.0 1.0 2 ------- null}
+ -t 0.57464 -s 1 -d 0 -p cbr -e 500 -c 0 -i 3 -a 0 -x {0.0 1.0 2 ------- null}
- -t 0.57664 -s 1 -d 0 -p cbr -e 500 -c 0 -i 0 -a 0 -x {0.0 1.0 0 ------- null}
h -t 0.57664 -s 1 -d 0 -p cbr -e 500 -c 0 -i 0 -a 0 -x {0.0 1.0 -1 ------- null}
r -t 0.57864 -s 1 -d 0 -p cbr -e 500 -c 0 -i 2 -a 0 -x {0.0 1.0 1 ------- null}
+ -t 0.57864 -s 1 -d 0 -p cbr -e 500 -c 0 -i 2 -a 0 -x {0.0 1.0 1 ------- null}
+ -t 0.58 -s 1 -d 0 -p cbr -e 500 -c 0 -i 9 -a 0 -x {0.0 1.0 8 ------- null}
- -t 0.58064 -s 1 -d 0 -p tcp -e 40 -c 0 -i 1 -a 0 -x {0.1 1.1 0 ------- null}
h -t 0.58064 -s 1 -d 0 -p tcp -e 40 -c 0 -i 1 -a 0 -x {0.1 1.1 -1 ------- null}
- -t 0.58096 -s 1 -d 0 -p cbr -e 500 -c 0 -i 4 -a 0 -x {0.0 1.0 3 ------- null}
h -t 0.58096 -s 1 -d 0 -p cbr -e 500 -c 0 -i 4 -a 0 -x {0.0 1.0 -1 ------- null}
r -t 0.58264 -s 1 -d 0 -p cbr -e 500 -c 0 -i 5 -a 0 -x {0.0 1.0 4 ------- null}
+ -t 0.58264 -s 1 -d 0 -p cbr -e 500 -c 0 -i 5 -a 0 -x {0.0 1.0 4 ------- null}
- -t 0.58496 -s 1 -d 0 -p cbr -e 500 -c 0 -i 8 -a 0 -x {0.0 1.0 7 ------- null}
h -t 0.58496 -s 1 -d 0 -p cbr -e 500 -c 0 -i 8 -a 0 -x {0.0 1.0 -1 ------- null}
r -t 0.58664 -s 1 -d 0 -p cbr -e 500 -c 0 -i 7 -a 0 -x {0.0 1.0 6 ------- null}
+ -t 0.58664 -s 1 -d 0 -p cbr -e 500 -c 0 -i 7 -a 0 -x {0.0 1.0 6 ------- null}
- -t 0.58896 -s 1 -d 0 -p cbr -e 500 -c 0 -i 6 -a 0 -x {0.0 1.0 5 ------- null}
h -t 0.58896 -s 1 -d 0 -p cbr -e 500 -c 0 -i 6 -a 0 -x {0.0 1.0 -1 ------- null}
+ -t 0.59 -s 1 -d 0 -p cbr -e 500 -c 0 -i 10 -a 0 -x {0.0 1.0 9 ------- null}
r -t 0.59064 -s 1 -d 0 -p cbr -e 500 -c 0 -i 0 -a 0 -x {0.0 1.0 0 ------- null}
+ -t 0.59064 -s 1 -d 0 -p cbr -e 500 -c 0 -i 0 -a 0 -x {0.0 1.0 0 ------- null}
r -t 0.59096 -s 1 -d 0 -p tcp -e 40 -c 0 -i 1 -a 0 -x {0.1 1.1 0 ------- null}
+ -t 0.59096 -s 1 -d 0 -p tcp -e 40 -c 0 -i 1 -a 0 -x {0.1 1.1 0 ------- null}
- -t 0.59296 -s 1 -d 0 -p cbr -e 500 -c 0 -i 3 -a 0 -x {0.0 1.0 2 ------- null}
h -t 0.59296 -s 1 -d 0 -p cbr -e 500 -c 0 -i 3 -a 0 -x {0.0 1.0 -1 ------- null}
r -t 0.59496 -s 1 -d 0 -p cbr -e 500 -c 0 -i 4 -a 0 -x {0.0 1.0 3 ------- null}
+ -t 0.59496 -s 1 -d 0 -p cbr -e 500 -c 0 -i 4 -a 0 -x {0.0 1.0 3 ------- null}
- -t 0.59696 -s 1 -d 0 -p cbr -e 500 -c 0 -i 2 -a 0 -x {0.0 1.0 1 ------- null}
h -t 0.59696 -s 1 -d 0 -p cbr -e 500 -c 0 -i 2 -a 0 -x {0.0 1.0 -1 ------- null}
r -t 0.59896 -s 1 -d 0 -p cbr -e 500 -c 0 -i 8 -a 0 -x {0.0 1.0 7 ------- null}
+ -t 0.59896 -s 1 -d 0 -p cbr -e 500 -c 0 -i 8 -a 0 -x {0.0 1.0 7 ------- null}
+ -t 0.6 -s 1 -d 0 -p cbr -e 500 -c 0 -i 11 -a 0 -x {0.0 1.0 10 ------- null}
- -t 0.60096 -s 1 -d 0 -p cbr -e 500 -c 0 -i 9 -a 0 -x {0.0 1.0 8 ------- null}
h -t 0.60096 -s 1 -d 0 -p cbr -e 500 -c 0 -i 9 -a 0 -x {0.0 1.0 -1 ------- null}
r -t 0.60296 -s 1 -d 0 -p cbr -e 500 -c 0 -i 6 -a 0 -x {0.0 1.0 5 ------- null}
+ -t 0.60296 -s 1 -d 0 -p cbr -e 500 -c 0 -i 6 -a 0 -x {0.0 1.0 5 ------- null}
- -t 0.60496 -s 1 -d 0 -p cbr -e 500 -c 0 -i 5 -a 0 -x {0.0 1.0 4 ------- null}
h -t 0.60496 -s 1 -d 0 -p cbr -e 500 -c 0 -i 5 -a 0 -x {0.0 1.0 -1 ------- null}
r -t 0.60696 -s 1 -d 0 -p cbr -e 500 -c 0 -i 3 -a 0 -x {0.0 1.0 2 ------- null}
+ -t 0.60696 -s 1 -d 0 -p cbr -e 500 -c 0 -i 3 -a 0 -x {0.0 1.0 2 ------- null}
- -t 0.60896 -s 1 -d 0 -p cbr -e 500 -c 0 -i 7 -a 0 -x {0.0 1.0 6 ------- null}
h -t 0.60896 -s 1 -d 0 -p cbr -e 500 -c 0 -i 7 -a 0 -x {0.0 1.0 -1 ------- null}
+ -t 0.61 -s 1 -d 0 -p cbr -e 500 -c 0 -i 12 -a 0 -x {0.0 1.0 11 ------- null}
r -t 0.61096 -s 1 -d 0 -p cbr -e 500 -c 0 -i 2 -a 0 -x {0.0 1.0 1 ------- null}
+ -t 0.61096 -s 1 -d 0 -p cbr -e 500 -c 0 -i 2 -a 0 -x {0.0 1.0 1 ------- null}
- -t 0.61296 -s 1 -d 0 -p cbr -e 500 -c 0 -i 10 -a 0 -x {0.0 1.0 9 ------- null}
h -t 0.61296 -s 1 -d 0 -p cbr -e 500 -c 0 -i 10 -a 0 -x {0.0 1.0 -1 ------- null}
r -t 0.61496 -s 1 -d 0 -p cbr -e 500 -c 0 -i 9 -a 0 -x {0.0 1.0 8 ------- null}
+ -t 0.61496 -s 1 -d 0 -p cbr -e 500 -c 0 -i 9 -a 0 -x {0.0 1.0 8 ------- null}
- -t 0.61696 -s 1 -d 0 -p cbr -e 500 -c 0 -i 0 -a 0 -x {0.0 1.0 0 ------- null}
h -t 0.61696 -s 1 -d 0 -p cbr -e 500 -c 0 -i 0 -a 0 -x {0.0 1.0 -1 ------- null}
r -t 0.61896 -s 1 -d 0 -p cbr -e 500 -c 0 -i 5 -a 0 -x {0.0 1.0 4 ------- null}
+ -t 0.61896 -s 1 -d 0 -p cbr -e 500 -c 0 -i 5 -a 0 -x {0.0 1.0 4 ------- null}
+ -t 0.62 -s 1 -d 0 -p cbr -e 500 -c 0 -i 13 -a 0 -x {0.0 1.0 12 ------- null}
- -t 0.62096 -s 1 -d 0 -p tcp -e 40 -c 0 -i 1 -a 0 -x {0.1 1.1 0 ------- null}
h -t 0.62096 -s 1 -d 0 -p tcp -e 40 -c 0 -i 1 -a 0 -x {0.1 1.1 -1 ------- null}
- -t 0.62128 -s 1 -d 0 -p cbr -e 500 -c 0 -i 4 -a 0 -x {0.0 1.0 3 ------- null}
h -t 0.62128 -s 1 -d 0 -p cbr -e 500 -c 0 -i 4 -a 0 -x {0.0 1.0 -1 ------- null}
r -t 0.62296 -s 1 -d 0 -p cbr -e 500 -c 0 -i 7 -a 0 -x {0.0 1.0 6 ------- null}
+ -t 0.62296 -s 1 -d 0 -p cbr -e 500 -c 0 -i 7 -a 0 -x {0.0 1.0 6 ------- null}
- -t 0.62528 -s 1 -d 0 -p cbr -e 500 -c 0 -i 8 -a 0 -x {0.0 1.0 7 ------- null}
h -t 0.62528 -s 1 -d 0 -p cbr -e 500 -c 0 -i 8 -a 0 -x {0.0 1.0 -1 ------- null}
r -t 0.62696 -s 1 -d 0 -p cbr -e 500 -c 0 -i 10 -a 0 -x {0.0 1.0 9 ------- null}
+ -t 0.62696 -s 1 -d 0 -p cbr -e 500 -c 0 -i 10 -a 0 -x {0.0 1.0 9 ------- null}
- -t 0.62928 -s 1 -d 0 -p cbr -e 500 -c 0 -i 11 -a 0 -x {0.0 1.0 10 ------- null}
h -t 0.62928 -s 1 -d 0 -p cbr -e 500 -c 0 -i 11 -a 0 -x {0.0 1.0 -1 ------- null}
+ -t 0.63 -s 1 -d 0 -p cbr -e 500 -c 0 -i 14 -a 0 -x {0.0 1.0 13 ------- null}
r -t 0.63096 -s 1 -d 0 -p cbr -e 500 -c 0 -i 0 -a 0 -x {0.0 1.0 0 ------- null}
+ -t 0.63096 -s 1 -d 0 -p cbr -e 500 -c 0 -i 0 -a 0 -x {0.0 1.0 0 ------- null}
r -t 0.63128 -s 1 -d 0 -p tcp -e 40 -c 0 -i 1 -a 0 -x {0.1 1.1 0 ------- null}
+ -t 0.63128 -s 1 -d 0 -p tcp -e 40 -c 0 -i 1 -a 0 -x {0.1 1.1 0 ------- null}
- -t 0.63328 -s 1 -d 0 -p cbr -e 500 -c 0 -i 6 -a 0 -x {0.0 1.0 5 ------- null}
h -t 0.63328 -s 1 -d 0 -p cbr -e 500 -c 0 -i 6 -a 0 -x {0.0 1.0 -1 ------- null}
r -t 0.63528 -s 1 -d 0 -p cbr -e 500 -c 0 -i 4 -a 0 -x {0.0 1.0 3 ------- null}
+ -t 0.63528 -s 1 -d 0 -p cbr -e 500 -c 0 -i 4 -a 0 -x {0.0 1.0 3 ------- null}
- -t 0.63728 -s 1 -d 0 -p cbr -e 500 -c 0 -i 3 -a 0 -x {0.0 1.0 2 ------- null}
h -t 0.63728 -s 1 -d 0 -p cbr -e 500 -c 0 -i 3 -a 0 -x {0.0 1.0 -1 ------- null}
r -t 0.63928 -s 1 -d 0 -p cbr -e 500 -c 0 -i 8 -a 0 -x {0.0 1.0 7 ------- null}
+ -t 0.63928 -s 1 -d 0 -p cbr -e 500 -c 0 -i 8 -a 0 -x {0.0 1.0 7 ------- null}
+ -t 0.64 -s 1 -d 0 -p cbr -e 500 -c 0 -i 15 -a 0 -x {0.0 1.0 14 ------- null}
- -t 0.64128 -s 1 -d 0 -p cbr -e 500 -c 0 -i 12 -a 0 -x {0.0 1.0 11 ------- null}
h -t 0.64128 -s 1 -d 0 -p cbr -e 500 -c 0 -i 12 -a 0 -x {0.0 1.0 -1 ------- null}
r -t 0.64328 -s 1 -d 0 -p cbr -e 500 -c 0 -i 11 -a 0 -x {0.0 1.0 10 ------- null}
+ -t 0.64328 -s 1 -d 0 -p cbr -e 500 -c 0 -i 11 -a 0 -x {0.0 1.0 10 ------- null}
- -t 0.64528 -s 1 -d 0 -p cbr -e 500 -c 0 -i 2 -a 0 -x {0.0 1.0 1 ------- null}
h -t 0.64528 -s 1 -d 0 -p cbr -e 500 -c 0 -i 2 -a 0 -x {0.0 1.0 -1 ------- null}
r -t 0.64728 -s 1 -d 0 -p cbr -e 500 -c 0 -i 6 -a 0 -x {0.0 1.0 5 ------- null}
+ -t 0.64728 -s 1 -d 0 -p cbr -e 500 -c 0 -i 6 -a 0 -x {0.0 1.0 5 ------- null}
- -t 0.64928 -s 1 -d 0 -p cbr -e 500 -c 0 -i 9 -a 0 -x {0.0 1.0 8 ------- null}
h -t 0.64928 -s 1 -d 0 -p cbr -e 500 -c 0 -i 9 -a 0 -x {0.0 1.0 -1 ------- null}
+ -t 0.65 -s 1 -d 0 -p cbr -e 500 -c 0 -i 16 -a 0 -x {0.0 1.0 15 ------- null}
r -t 0.65128 -s 1 -d 0 -p cbr -e 500 -c 0 -i 3 -a 0 -x {0.0 1.0 2 ------- null}
+ -t 0.65128 -s 1 -d 0 -p cbr -e 500 -c 0 -i 3 -a 0 -x {0.0 1.0 2 ------- null}
- -t 0.65328 -s 1 -d 0 -p cbr -e 500 -c 0 -i 5 -a 0 -x {0.0 1.0 4 ------- null}
h -t 0.65328 -s 1 -d 0 -p cbr -e 500 -c 0 -i 5 -a 0 -x {0.0 1.0 -1 ------- null}
r -t 0.65528 -s 1 -d 0 -p cbr -e 500 -c 0 -i 12 -a 0 -x {0.0 1.0 11 ------- null}
+ -t 0.65528 -s 1 -d 0 -p cbr -e 500 -c 0 -i 12 -a 0 -x {0.0 1.0 11 ------- null}
- -t 0.65728 -s 1 -d 0 -p cbr -e 500 -c 0 -i 13 -a 0 -x {0.0 1.0 12 ------- null}
h -t 0.65728 -s 1 -d 0 -p cbr -e 500 -c 0 -i 13 -a 0 -x {0.0 1.0 -1 ------- null}
r -t 0.65928 -s 1 -d 0 -p cbr -e 500 -c 0 -i 2 -a 0 -x {0.0 1.0 1 ------- null}
+ -t 0.65928 -s 1 -d 0 -p cbr -e 500 -c 0 -i 2 -a 0 -x {0.0 1.0 1 ------- null}
+ -t 0.66 -s 1 -d 0 -p cbr -e 500 -c 0 -i 17 -a 0 -x {0.0 1.0 16 ------- null}
- -t 0.66128 -s 1 -d 0 -p cbr -e 500 -c 0 -i 7 -a 0 -x {0.0 1.0 6 ------- null}
h -t 0.66128 -s 1 -d 0 -p cbr -e 500 -c 0 -i 7 -a 0 -x {0.0 1.0 -1 ------- null}
r -t 0.66328 -s 1 -d 0 -p cbr -e 500 -c 0 -i 9 -a 0 -x {0.0 1.0 8 ------- null}
+ -t 0.66328 -s 1 -d 0 -p cbr -e 500 -c 0 -i 9 -a 0 -x {0.0 1.0 8 ------- null}
- -t 0.66528 -s 1 -d 0 -p cbr -e 500 -c 0 -i 10 -a 0 -x {0.0 1.0 9 ------- null}
h -t 0.66528 -s 1 -d 0 -p cbr -e 500 -c 0 -i 10 -a 0 -x {0.0 1.0 -1 ------- null}
r -t 0.66728 -s 1 -d 0 -p cbr -e 500 -c 0 -i 5 -a 0 -x {0.0 1.0 4 ------- null}
+ -t 0.66728 -s 1 -d 0 -p cbr -e 500 -c 0 -i 5 -a 0 -x {0.0 1.0 4 ------- null}
- -t 0.66928 -s 1 -d 0 -p cbr -e 500 -c 0 -i 14 -a 0 -x {0.0 1.0 13 ------- null}
h -t 0.66928 -s 1 -d 0 -p cbr -e 500 -c 0 -i 14 -a 0 -x {0.0 1.0 -1 ------- null}
+ -t 0.67 -s 1 -d 0 -p cbr -e 500 -c 0 -i 18 -a 0 -x {0.0 1.0 17 ------- null}
r -t 0.67128 -s 1 -d 0 -p cbr -e 500 -c 0 -i 13 -a 0 -x {0.0 1.0 12 ------- null}
+ -t 0.67128 -s 1 -d 0 -p cbr -e 500 -c 0 -i 13 -a 0 -x {0.0 1.0 12 ------- null}
- -t 0.67328 -s 1 -d 0 -p cbr -e 500 -c 0 -i 0 -a 0 -x {0.0 1.0 0 ------- null}
h -t 0.67328 -s 1 -d 0 -p cbr -e 500 -c 0 -i 0 -a 0 -x {0.0 1.0 -1 ------- null}
r -t 0.67528 -s 1 -d 0 -p cbr -e 500 -c 0 -i 7 -a 0 -x {0.0 1.0 6 ------- null}
+ -t 0.67528 -s 1 -d 0 -p cbr -e 500 -c 0 -i 7 -a 0 -x {0.0 1.0 6 ------- null}
- -t 0.67728 -s 1 -d 0 -p tcp -e 40 -c 0 -i 1 -a 0 -x {0.1 1.1 0 ------- null}
h -t 0.67728 -s 1 -d 0 -p tcp -e 40 -c 0 -i 1 -a 0 -x {0.1 1.1 -1 ------- null}
- -t 0.6776 -s 1 -d 0 -p cbr -e 500 -c 0 -i 4 -a 0 -x {0.0 1.0 3 ------- null}
h -t 0.6776 -s 1 -d 0 -p cbr -e 500 -c 0 -i 4 -a 0 -x {0.0 1.0 -1 ------- null}
r -t 0.67928 -s 1 -d 0 -p cbr -e 500 -c 0 -i 10 -a 0 -x {0.0 1.0 9 ------- null}
+ -t 0.67928 -s 1 -d 0 -p cbr -e 500 -c 0 -i 10 -a 0 -x {0.0 1.0 9 ------- null}
+ -t 0.68 -s 1 -d 0 -p cbr -e 500 -c 0 -i 19 -a 0 -x {0.0 1.0 18 ------- null}
- -t 0.6816 -s 1 -d 0 -p cbr -e 500 -c 0 -i 8 -a 0 -x {0.0 1.0 7 ------- null}
h -t 0.6816 -s 1 -d 0 -p cbr -e 500 -c 0 -i 8 -a 0 -x {0.0 1.0 -1 ------- null}
r -t 0.68328 -s 1 -d 0 -p cbr -e 500 -c 0 -i 14 -a 0 -x {0.0 1.0 13 ------- null}
+ -t 0.68328 -s 1 -d 0 -p cbr -e 500 -c 0 -i 14 -a 0 -x {0.0 1.0 13 ------- null}
- -t 0.6856 -s 1 -d 0 -p cbr -e 500 -c 0 -i 15 -a 0 -x {0.0 1.0 14 ------- null}
h -t 0.6856 -s 1 -d 0 -p cbr -e 500 -c 0 -i 15 -a 0 -x {0.0 1.0 -1 ------- null}
r -t 0.68728 -s 1 -d 0 -p cbr -e 500 -c 0 -i 0 -a 0 -x {0.0 1.0 0 ------- null}
+ -t 0.68728 -s 1 -d 0 -p cbr -e 500 -c 0 -i 0 -a 0 -x {0.0 1.0 0 ------- null}
r -t 0.6876 -s 1 -d 0 -p tcp -e 40 -c 0 -i 1 -a 0 -x {0.1 1.1 0 ------- null}
+ -t 0.6876 -s 1 -d 0 -p tcp -e 40 -c 0 -i 1 -a 0 -x {0.1 1.1 0 ------- null}
- -t 0.6896 -s 1 -d 0 -p cbr -e 500 -c 0 -i 11 -a 0 -x {0.0 1.0 10 ------- null}
h -t 0.6896 -s 1 -d 0 -p cbr -e 500 -c 0 -i 11 -a 0 -x {0.0 1.0 -1 ------- null}
+ -t 0.69 -s 1 -d 0 -p cbr -e 500 -c 0 -i 20 -a 0 -x {0.0 1.0 19 ------- null}
r -t 0.6916 -s 1 -d 0 -p cbr -e 500 -c 0 -i 4 -a 0 -x {0.0 1.0 3 ------- null}
+ -t 0.6916 -s 1 -d 0 -p cbr -e 500 -c 0 -i 4 -a 0 -x {0.0 1.0 3 ------- null}
- -t 0.6936 -s 1 -d 0 -p cbr -e 500 -c 0 -i 6 -a 0 -x {0.0 1.0 5 ------- null}
h -t 0.6936 -s 1 -d 0 -p cbr -e 500 -c 0 -i 6 -a 0 -x {0.0 1.0 -1 ------- null}
r -t 0.6956 -s 1 -d 0 -p cbr -e 500 -c 0 -i 8 -a 0 -x {0.0 1.0 7 ------- null}
+ -t 0.6956 -s 1 -d 0 -p cbr -e 500 -c 0 -i 8 -a 0 -x {0.0 1.0 7 ------- null}
- -t 0.6976 -s 1 -d 0 -p cbr -e 500 -c 0 -i 16 -a 0 -x {0.0 1.0 15 ------- null}
h -t 0.6976 -s 1 -d 0 -p cbr -e 500 -c 0 -i 16 -a 0 -x {0.0 1.0 -1 ------- null}
r -t 0.6996 -s 1 -d 0 -p cbr -e 500 -c 0 -i 15 -a 0 -x {0.0 1.0 14 ------- null}
+ -t 0.6996 -s 1 -d 0 -p cbr -e 500 -c 0 -i 15 -a 0 -x {0.0 1.0 14 ------- null}
+ -t 0.7 -s 1 -d 0 -p cbr -e 500 -c 0 -i 21 -a 0 -x {0.0 1.0 20 ------- null}
- -t 0.7016 -s 1 -d 0 -p cbr -e 500 -c 0 -i 3 -a 0 -x {0.0 1.0 2 ------- null}
h -t 0.7016 -s 1 -d 0 -p cbr -e 500 -c 0 -i 3 -a 0 -x {0.0 1.0 -1 ------- null}
r -t 0.7036 -s 1 -d 0 -p cbr -e 500 -c 0 -i 11 -a 0 -x {0.0 1.0 10 ------- null}
+ -t 0.7036 -s 1 -d 0 -p cbr -e 500 -c 0 -i 11 -a 0 -x {0.0 1.0 10 ------- null}
- -t 0.7056 -s 1 -d 0 -p cbr -e 500 -c 0 -i 12 -a 0 -x {0.0 1.0 11 ------- null}
h -t 0.7056 -s 1 -d 0 -p cbr -e 500 -c 0 -i 12 -a 0 -x {0.0 1.0 -1 ------- null}
r -t 0.7076 -s 1 -d 0 -p cbr -e 500 -c 0 -i 6 -a 0 -x {0.0 1.0 5 ------- null}
+ -t 0.7076 -s 1 -d 0 -p cbr -e 500 -c 0 -i 6 -a 0 -x {0.0 1.0 5 ------- null}
- -t 0.7096 -s 1 -d 0 -p cbr -e 500 -c 0 -i 2 -a 0 -x {0.0 1.0 1 ------- null}
h -t 0.7096 -s 1 -d 0 -p cbr -e 500 -c 0 -i 2 -a 0 -x {0.0 1.0 -1 ------- null}
+ -t 0.71 -s 1 -d 0 -p cbr -e 500 -c 0 -i 22 -a 0 -x {0.0 1.0 21 ------- null}
r -t 0.7116 -s 1 -d 0 -p cbr -e 500 -c 0 -i 16 -a 0 -x {0.0 1.0 15 ------- null}
+ -t 0.7116 -s 1 -d 0 -p cbr -e 500 -c 0 -i 16 -a 0 -x {0.0 1.0 15 ------- null}
- -t 0.7136 -s 1 -d 0 -p cbr -e 500 -c 0 -i 17 -a 0 -x {0.0 1.0 16 ------- null}
h -t 0.7136 -s 1 -d 0 -p cbr -e 500 -c 0 -i 17 -a 0 -x {0.0 1.0 -1 ------- null}
r -t 0.7156 -s 1 -d 0 -p cbr -e 500 -c 0 -i 3 -a 0 -x {0.0 1.0 2 ------- null}
+ -t 0.7156 -s 1 -d 0 -p cbr -e 500 -c 0 -i 3 -a 0 -x {0.0 1.0 2 ------- null}
- -t 0.7176 -s 1 -d 0 -p cbr -e 500 -c 0 -i 9 -a 0 -x {0.0 1.0 8 ------- null}
h -t 0.7176 -s 1 -d 0 -p cbr -e 500 -c 0 -i 9 -a 0 -x {0.0 1.0 -1 ------- null}
r -t 0.7196 -s 1 -d 0 -p cbr -e 500 -c 0 -i 12 -a 0 -x {0.0 1.0 11 ------- null}
+ -t 0.7196 -s 1 -d 0 -p cbr -e 500 -c 0 -i 12 -a 0 -x {0.0 1.0 11 ------- null}
+ -t 0.72 -s 1 -d 0 -p cbr -e 500 -c 0 -i 23 -a 0 -x {0.0 1.0 22 ------- null}
- -t 0.7216 -s 1 -d 0 -p cbr -e 500 -c 0 -i 5 -a 0 -x {0.0 1.0 4 ------- null}
h -t 0.7216 -s 1 -d 0 -p cbr -e 500 -c 0 -i 5 -a 0 -x {0.0 1.0 -1 ------- null}
r -t 0.7236 -s 1 -d 0 -p cbr -e 500 -c 0 -i 2 -a 0 -x {0.0 1.0 1 ------- null}
+ -t 0.7236 -s 1 -d 0 -p cbr -e 500 -c 0 -i 2 -a 0 -x {0.0 1.0 1 ------- null}
- -t 0.7256 -s 1 -d 0 -p cbr -e 500 -c 0 -i 18 -a 0 -x {0.0 1.0 17 ------- null}
h -t 0.7256 -s 1 -d 0 -p cbr -e 500 -c 0 -i 18 -a 0 -x {0.0 1.0 -1 ------- null}
r -t 0.7276 -s 1 -d 0 -p cbr -e 500 -c 0 -i 17 -a 0 -x {0.0 1.0 16 ------- null}
+ -t 0.7276 -s 1 -d 0 -p cbr -e 500 -c 0 -i 17 -a 0 -x {0.0 1.0 16 ------- null}
- -t 0.7296 -s 1 -d 0 -p cbr -e 500 -c 0 -i 13 -a 0 -x {0.0 1.0 12 ------- null}
h -t 0.7296 -s 1 -d 0 -p cbr -e 500 -c 0 -i 13 -a 0 -x {0.0 1.0 -1 ------- null}
+ -t 0.73 -s 1 -d 0 -p cbr -e 500 -c 0 -i 24 -a 0 -x {0.0 1.0 23 ------- null}
r -t 0.7316 -s 1 -d 0 -p cbr -e 500 -c 0 -i 9 -a 0 -x {0.0 1.0 8 ------- null}
+ -t 0.7316 -s 1 -d 0 -p cbr -e 500 -c 0 -i 9 -a 0 -x {0.0 1.0 8 ------- null}
- -t 0.7336 -s 1 -d 0 -p cbr -e 500 -c 0 -i 7 -a 0 -x {0.0 1.0 6 ------- null}
h -t 0.7336 -s 1 -d 0 -p cbr -e 500 -c 0 -i 7 -a 0 -x {0.0 1.0 -1 ------- null}
r -t 0.7356 -s 1 -d 0 -p cbr -e 500 -c 0 -i 5 -a 0 -x {0.0 1.0 4 ------- null}
+ -t 0.7356 -s 1 -d 0 -p cbr -e 500 -c 0 -i 5 -a 0 -x {0.0 1.0 4 ------- null}
- -t 0.7376 -s 1 -d 0 -p cbr -e 500 -c 0 -i 10 -a 0 -x {0.0 1.0 9 ------- null}
h -t 0.7376 -s 1 -d 0 -p cbr -e 500 -c 0 -i 10 -a 0 -x {0.0 1.0 -1 ------- null}
r -t 0.7396 -s 1 -d 0 -p cbr -e 500 -c 0 -i 18 -a 0 -x {0.0 1.0 17 ------- null}
+ -t 0.7396 -s 1 -d 0 -p cbr -e 500 -c 0 -i 18 -a 0 -x {0.0 1.0 17 ------- null}
+ -t 0.74 -s 1 -d 0 -p cbr -e 500 -c 0 -i 25 -a 0 -x {0.0 1.0 24 ------- null}
- -t 0.7416 -s 1 -d 0 -p cbr -e 500 -c 0 -i 19 -a 0 -x {0.0 1.0 18 ------- null}
h -t 0.7416 -s 1 -d 0 -p cbr -e 500 -c 0 -i 19 -a 0 -x {0.0 1.0 -1 ------- null}
r -t 0.7436 -s 1 -d 0 -p cbr -e 500 -c 0 -i 13 -a 0 -x {0.0 1.0 12 ------- null}
d -t 0.7436 -s 1 -d 0 -p cbr -e 500 -c 0 -i 13 -a 0 -x {0.0 1.0 12 ------- null}
- -t 0.7456 -s 1 -d 0 -p cbr -e 500 -c 0 -i 14 -a 0 -x {0.0 1.0 13 ------- null}
h -t 0.7456 -s 1 -d 0 -p cbr -e 500 -c 0 -i 14 -a 0 -x {0.0 1.0 -1 ------- null}
r -t 0.7476 -s 1 -d 0 -p cbr -e 500 -c 0 -i 7 -a 0 -x {0.0 1.0 6 ------- null}
+ -t 0.7476 -s 1 -d 0 -p cbr -e 500 -c 0 -i 7 -a 0 -x {0.0 1.0 6 ------- null}
- -t 0.7496 -s 1 -d 0 -p cbr -e 500 -c 0 -i 0 -a 0 -x {0.0 1.0 0 ------- null}
h -t 0.7496 -s 1 -d 0 -p cbr -e 500 -c 0 -i 0 -a 0 -x {0.0 1.0 -1 ------- null}
+ -t 0.75 -s 1 -d 0 -p cbr -e 500 -c 0 -i 26 -a 0 -x {0.0 1.0 25 ------- null}
r -t 0.7516 -s 1 -d 0 -p cbr -e 500 -c 0 -i 10 -a 0 -x {0.0 1.0 9 ------- null}
+ -t 0.7516 -s 1 -d 0 -p cbr -e 500 -c 0 -i 10 -a 0 -x {0.0 1.0 9 ------- null}
- -t 0.7536 -s 1 -d 0 -p tcp -e 40 -c 0 -i 1 -a 0 -x {0.1 1.1 0 ------- null}
h -t 0.7536 -s 1 -d 0 -p tcp -e 40 -c 0 -i 1 -a 0 -x {0.1 1.1 -1 ------- null}
- -t 0.75392 -s 1 -d 0 -p cbr -e 500 -c 0 -i 20 -a 0 -x {0.0 1.0 19 ------- null}
h -t 0.75392 -s 1 -d 0 -p cbr -e 500 -c 0 -i 20 -a 0 -x {0.0 1.0 -1 ------- null}
r -t 0.7556 -s 1 -d 0 -p cbr -e 500 -c 0 -i 19 -a 0 -x {0.0 1.0 18 ------- null}
+ -t 0.7556 -s 1 -d 0 -p cbr -e 500 -c 0 -i 19 -a 0 -x {0.0 1.0 18 ------- null}
- -t 0.75792 -s 1 -d 0 -p cbr -e 500 -c 0 -i 4 -a 0 -x {0.0 1.0 3 ------- null}
h -t 0.75792 -s 1 -d 0 -p cbr -e 500 -c 0 -i 4 -a 0 -x {0.0 1.0 -1 ------- null}
r -t 0.7596 -s 1 -d 0 -p cbr -e 500 -c 0 -i 14 -a 0 -x {0.0 1.0 13 ------- null}
+ -t 0.7596 -s 1 -d 0 -p cbr -e 500 -c 0 -i 14 -a 0 -x {0.0 1.0 13 ------- null}
+ -t 0.76 -s 1 -d 0 -p cbr -e 500 -c 0 -i 27 -a 0 -x {0.0 1.0 26 ------- null}
- -t 0.76192 -s 1 -d 0 -p cbr -e 500 -c 0 -i 8 -a 0 -x {0.0 1.0 7 ------- null}
h -t 0.76192 -s 1 -d 0 -p cbr -e 500 -c 0 -i 8 -a 0 -x {0.0 1.0 -1 ------- null}
r -t 0.7636 -s 1 -d 0 -p cbr -e 500 -c 0 -i 0 -a 0 -x {0.0 1.0 0 ------- null}
+ -t 0.7636 -s 1 -d 0 -p cbr -e 500 -c 0 -i 0 -a 0 -x {0.0 1.0 0 ------- null}
r -t 0.76392 -s 1 -d 0 -p tcp -e 40 -c 0 -i 1 -a 0 -x {0.1 1.1 0 ------- null}
d -t 0.76392 -s 1 -d 0 -p tcp -e 40 -c 0 -i 1 -a 0 -x {0.1 1.1 0 ------- null}
- -t 0.76592 -s 1 -d 0 -p cbr -e 500 -c 0 -i 15 -a 0 -x {0.0 1.0 14 ------- null}
h -t 0.76592 -s 1 -d 0 -p cbr -e 500 -c 0 -i 15 -a 0 -x {0.0 1.0 -1 ------- null}
r -t 0.76792 -s 1 -d 0 -p cbr -e 500 -c 0 -i 20 -a 0 -x {0.0 1.0 19 ------- null}
+ -t 0.76792 -s 1 -d 0 -p cbr -e 500 -c 0 -i 20 -a 0 -x {0.0 1.0 19 ------- null}
- -t 0.76992 -s 1 -d 0 -p cbr -e 500 -c 0 -i 21 -a 0 -x {0.0 1.0 20 ------- null}
h -t 0.76992 -s 1 -d 0 -p cbr -e 500 -c 0 -i 21 -a 0 -x {0.0 1.0 -1 ------- null}
+ -t 0.77 -s 1 -d 0 -p cbr -e 500 -c 0 -i 28 -a 0 -x {0.0 1.0 27 ------- null}
r -t 0.77192 -s 1 -d 0 -p cbr -e 500 -c 0 -i 4 -a 0 -x {0.0 1.0 3 ------- null}
+ -t 0.77192 -s 1 -d 0 -p cbr -e 500 -c 0 -i 4 -a 0 -x {0.0 1.0 3 ------- null}
- -t 0.77392 -s 1 -d 0 -p cbr -e 500 -c 0 -i 11 -a 0 -x {0.0 1.0 10 ------- null}
h -t 0.77392 -s 1 -d 0 -p cbr -e 500 -c 0 -i 11 -a 0 -x {0.0 1.0 -1 ------- null}
r -t 0.77592 -s 1 -d 0 -p cbr -e 500 -c 0 -i 8 -a 0 -x {0.0 1.0 7 ------- null}
+ -t 0.77592 -s 1 -d 0 -p cbr -e 500 -c 0 -i 8 -a 0 -x {0.0 1.0 7 ------- null}
- -t 0.77792 -s 1 -d 0 -p cbr -e 500 -c 0 -i 6 -a 0 -x {0.0 1.0 5 ------- null}
h -t 0.77792 -s 1 -d 0 -p cbr -e 500 -c 0 -i 6 -a 0 -x {0.0 1.0 -1 ------- null}
r -t 0.77992 -s 1 -d 0 -p cbr -e 500 -c 0 -i 15 -a 0 -x {0.0 1.0 14 ------- null}
+ -t 0.77992 -s 1 -d 0 -p cbr -e 500 -c 0 -i 15 -a 0 -x {0.0 1.0 14 ------- null}
+ -t 0.78 -s 1 -d 0 -p cbr -e 500 -c 0 -i 29 -a 0 -x {0.0 1.0 28 ------- null}
- -t 0.78192 -s 1 -d 0 -p cbr -e 500 -c 0 -i 22 -a 0 -x {0.0 1.0 21 ------- null}
h -t 0.78192 -s 1 -d 0 -p cbr -e 500 -c 0 -i 22 -a 0 -x {0.0 1.0 -1 ------- null}
r -t 0.78392 -s 1 -d 0 -p cbr -e 500 -c 0 -i 21 -a 0 -x {0.0 1.0 20 ------- null}
+ -t 0.78392 -s 1 -d 0 -p cbr -e 500 -c 0 -i 21 -a 0 -x {0.0 1.0 20 ------- null}
- -t 0.78592 -s 1 -d 0 -p cbr -e 500 -c 0 -i 16 -a 0 -x {0.0 1.0 15 ------- null}
h -t 0.78592 -s 1 -d 0 -p cbr -e 500 -c 0 -i 16 -a 0 -x {0.0 1.0 -1 ------- null}
r -t 0.78792 -s 1 -d 0 -p cbr -e 500 -c 0 -i 11 -a 0 -x {0.0 1.0 10 ------- null}
+ -t 0.78792 -s 1 -d 0 -p cbr -e 500 -c 0 -i 11 -a 0 -x {0.0 1.0 10 ------- null}
- -t 0.78992 -s 1 -d 0 -p cbr -e 500 -c 0 -i 3 -a 0 -x {0.0 1.0 2 ------- null}
h -t 0.78992 -s 1 -d 0 -p cbr -e 500 -c 0 -i 3 -a 0 -x {0.0 1.0 -1 ------- null}
+ -t 0.79 -s 1 -d 0 -p cbr -e 500 -c 0 -i 30 -a 0 -x {0.0 1.0 29 ------- null}
r -t 0.79192 -s 1 -d 0 -p cbr -e 500 -c 0 -i 6 -a 0 -x {0.0 1.0 5 ------- null}
+ -t 0.79192 -s 1 -d 0 -p cbr -e 500 -c 0 -i 6 -a 0 -x {0.0 1.0 5 ------- null}
- -t 0.79392 -s 1 -d 0 -p cbr -e 500 -c 0 -i 12 -a 0 -x {0.0 1.0 11 ------- null}
h -t 0.79392 -s 1 -d 0 -p cbr -e 500 -c 0 -i 12 -a 0 -x {0.0 1.0 -1 ------- null}
r -t 0.79592 -s 1 -d 0 -p cbr -e 500 -c 0 -i 22 -a 0 -x {0.0 1.0 21 ------- null}
+ -t 0.79592 -s 1 -d 0 -p cbr -e 500 -c 0 -i 22 -a 0 -x {0.0 1.0 21 ------- null}
- -t 0.79792 -s 1 -d 0 -p cbr -e 500 -c 0 -i 23 -a 0 -x {0.0 1.0 22 ------- null}
h -t 0.79792 -s 1 -d 0 -p cbr -e 500 -c 0 -i 23 -a 0 -x {0.0 1.0 -1 ------- null}
r -t 0.79992 -s 1 -d 0 -p cbr -e 500 -c 0 -i 16 -a 0 -x {0.0 1.0 15 ------- null}
+ -t 0.79992 -s 1 -d 0 -p cbr -e 500 -c 0 -i 16 -a 0 -x {0.0 1.0 15 ------- null}
+ -t 0.8 -s 1 -d 0 -p cbr -e 500 -c 0 -i 31 -a 0 -x {0.0 1.0 30 ------- null}
- -t 0.80192 -s 1 -d 0 -p cbr -e 500 -c 0 -i 2 -a 0 -x {0.0 1.0 1 ------- null}
h -t 0.80192 -s 1 -d 0 -p cbr -e 500 -c 0 -i 2 -a 0 -x {0.0 1.0 -1 ------- null}
r -t 0.80392 -s 1 -d 0 -p cbr -e 500 -c 0 -i 3 -a 0 -x {0.0 1.0 2 ------- null}
+ -t 0.80392 -s 1 -d 0 -p cbr -e 500 -c 0 -i 3 -a 0 -x {0.0 1.0 2 ------- null}
- -t 0.80592 -s 1 -d 0 -p cbr -e 500 -c 0 -i 17 -a 0 -x {0.0 1.0 16 ------- null}
h -t 0.80592 -s 1 -d 0 -p cbr -e 500 -c 0 -i 17 -a 0 -x {0.0 1.0 -1 ------- null}
r -t 0.80792 -s 1 -d 0 -p cbr -e 500 -c 0 -i 12 -a 0 -x {0.0 1.0 11 ------- null}
+ -t 0.80792 -s 1 -d 0 -p cbr -e 500 -c 0 -i 12 -a 0 -x {0.0 1.0 11 ------- null}
- -t 0.80992 -s 1 -d 0 -p cbr -e 500 -c 0 -i 24 -a 0 -x {0.0 1.0 23 ------- null}
h -t 0.80992 -s 1 -d 0 -p cbr -e 500 -c 0 -i 24 -a 0 -x {0.0 1.0 -1 ------- null}
+ -t 0.81 -s 1 -d 0 -p cbr -e 500 -c 0 -i 32 -a 0 -x {0.0 1.0 31 ------- null}
r -t 0.81192 -s 1 -d 0 -p cbr -e 500 -c 0 -i 23 -a 0 -x {0.0 1.0 22 ------- null}
+ -t 0.81192 -s 1 -d 0 -p cbr -e 500 -c 0 -i 23 -a 0 -x {0.0 1.0 22 ------- null}
- -t 0.81392 -s 1 -d 0 -p cbr -e 500 -c 0 -i 9 -a 0 -x {0.0 1.0 8 ------- null}
h -t 0.81392 -s 1 -d 0 -p cbr -e 500 -c 0 -i 9 -a 0 -x {0.0 1.0 -1 ------- null}
r -t 0.81592 -s 1 -d 0 -p cbr -e 500 -c 0 -i 2 -a 0 -x {0.0 1.0 1 ------- null}
+ -t 0.81592 -s 1 -d 0 -p cbr -e 500 -c 0 -i 2 -a 0 -x {0.0 1.0 1 ------- null}